LAMMPS (6 Apr 2015)
# HW4-prob3.input
# Calculate the coefficient of thermal expansion (CTE) for Copper
# Any line after '#' has been commented out

units		metal  # metal implies quantities have units (distance: angstrom, time: picoseconds, energy: eV, temperature: K, pressure: bars )
atom_style	atomic # Defining attributes associated with the atoms


read_data       Cu_relaxed_lattice.input # reading in the coordinates
  orthogonal box = (-0.0410052 -0.0410052 -0.0410052) to (29.153 29.153 29.153)
  1 by 1 by 1 MPI processor grid
  reading atoms ...
  2048 atoms
  reading velocities ...
  2048 velocities

pair_style	eam/fs # Defining the type of  potential as EAM
pair_coeff	* * CuZr_mm.eam.fs Cu # Defining the coefficients of the interaction between types of atoms using an external potential file
Reading potential file CuZr_mm.eam.fs with DATE: 2007-06-11

neighbor	0.3 bin
neigh_modify	every 20 delay 0 check no # frequency of creating neighbour lists

velocity        all create 300 87287 # Defining the velocity of the atoms to set the temperature. The final number is a random seed required for the probability distribution while the quantity before that is the temperature

thermo          10 # Defining the frequency of output of thermodynamic data.
thermo_style    custom step temp ke pe etotal vol press pxx pyy pzz  lx ly lz enthalpy #Defining the thermodynamic quantities to output.
timestep        0.001 # timestep is in picoseconds for units metal

dump            3 all custom 10000 dump.data id type x y z # Coordinates data file

fix             1 all npt temp 300 300 0.1 iso 0.0 0.0 5 # !!! Equilibrating at 300 K, change both the values after temp to the desired temperature
run             25000
Neighbor list info ...
  1 neighbor list requests
  update every 20 steps, delay 0 steps, check no
  master list distance cutoff = 7.9
Memory usage per processor = 3.64212 Mbytes
Step Temp KinEng PotEng TotEng Volume Press Pxx Pyy Pzz Lx Ly Lz Enthalpy 
       0          300    79.378655    -6641.179   -6561.8004     24881.77      2049.49    1974.2184    2033.3441    2140.9075     29.19401     29.19401     29.19401   -6529.9718 
      10    309.30647    81.841107   -6643.6507   -6561.8096    24881.857    1866.7868    1838.9643    1788.6052    1972.7909    29.194044    29.194044    29.194044   -6532.8183 
      20    316.25364    83.679295    -6645.549   -6561.8697    24882.108    1685.6727    1620.3393    1611.7879     1824.891    29.194143    29.194143    29.194143   -6535.6909 
      30    318.73551    84.335987   -6646.3575   -6562.0215    24882.507    1531.1294    1389.0471    1506.9185    1697.4225    29.194299    29.194299    29.194299   -6538.2424 
      40    316.83286    83.832554   -6646.1136   -6562.2811    24883.041    1428.6936    1219.9777    1473.8324    1592.2706    29.194507    29.194507    29.194507   -6540.0924 
      50    312.10524    82.581648   -6645.2176   -6562.6359      24883.7    1412.0524    1180.4441    1511.3634    1544.3497    29.194765    29.194765    29.194765   -6540.7051 
      60    306.13225     81.00122   -6644.0521   -6563.0509    24884.484    1472.8077    1270.4471    1569.9393    1578.0368    29.195072    29.195072    29.195072   -6540.1757 
      70    299.95788     79.36751   -6642.8466   -6563.4791    24885.397    1528.9901    1361.0748    1579.1459    1646.7494    29.195429    29.195429    29.195429   -6539.7304 
      80    294.33485    77.879683    -6641.753   -6563.8733    24886.444    1532.9262    1347.4427    1551.3961    1699.9397    29.195838    29.195838    29.195838   -6540.0625 
      90    290.24071    76.796391   -6640.9948   -6564.1984    24887.625    1520.0653     1282.874    1553.6777    1723.6441      29.1963      29.1963      29.1963   -6540.5863 
     100    288.82796    76.422583   -6640.8608   -6564.4382     24888.94     1503.327    1237.2727    1578.7592    1693.9491    29.196814    29.196814    29.196814   -6541.0848 
     110     290.6688    76.909662    -6641.506   -6564.5963    24890.386    1431.4886    1176.8806    1540.0243    1577.5609     29.19738     29.19738     29.19738   -6542.3576 
     120    295.35914    78.150704   -6642.8428   -6564.6921    24891.958    1267.0023    1050.1468     1379.227    1371.6331    29.197994    29.197994    29.197994   -6545.0075 
     130    301.48831    79.772456   -6644.5279   -6564.7555     24893.64    1035.1571    879.15754    1105.1772    1121.1365    29.198652    29.198652    29.198652   -6548.6718 
     140    306.86458    81.194992   -6646.0145   -6564.8195    24895.413    794.13963    719.00002    757.98298    905.43588    29.199345    29.199345    29.199345   -6552.4798 
     150    309.13547    81.795859   -6646.7062   -6564.9103    24897.257    588.69959    570.87057    413.86087    781.36733    29.200066    29.200066    29.200066   -6555.7621 
     160    306.95685    81.219407   -6646.2542   -6565.0348    24899.152    434.48999    411.73627    177.19256    714.54114    29.200807    29.200807    29.200807   -6558.2825 
     170    301.11967    79.674914   -6644.8517   -6565.1768    24901.087    336.74931    256.00777    131.71911    622.52104    29.201563    29.201563    29.201563    -6559.943 
     180    294.19344    77.842265   -6643.1474   -6565.3051    24903.052    282.63512    135.60449    243.23922    469.06166    29.202331    29.202331    29.202331    -6560.912 
     190    289.26755    76.538896   -6641.9288   -6565.3899    24905.042    234.04926    57.870258    355.72662    288.55091    29.203109    29.203109    29.203109   -6561.7518 
     200    288.63003    76.370211   -6641.7857   -6565.4155    24907.053     146.8893   -8.0468732    321.04778    127.66699    29.203895    29.203895    29.203895    -6563.132 
     210    292.39808    77.367221   -6642.7527   -6565.3855    24909.077    12.323884    -108.2632     142.3724    2.8624603    29.204686    29.204686    29.204686   -6565.1939 
     220    298.14299    78.887299   -6644.2079   -6565.3206    24911.102   -131.64627    -265.6879   -43.625562   -85.625351    29.205478    29.205478    29.205478   -6567.3674 
     230    302.49895    80.039867    -6645.289   -6565.2491    24913.116   -242.24992   -447.32309   -156.26364   -123.16303    29.206265    29.206265    29.206265    -6569.016 
     240    303.44315    80.289697   -6645.4826   -6565.1929     24915.11   -296.17189   -586.62647   -201.39882   -100.49039    29.207044    29.207044    29.207044   -6569.7986 
     250    301.05162    79.656908   -6644.8131   -6565.1562    24917.078   -312.15494   -650.01006    -204.9393   -81.515466    29.207813    29.207813    29.207813   -6570.0109 
     260     297.0164    78.589209   -6643.7155   -6565.1263    24919.019   -318.83015   -626.98665   -203.01277   -126.49103    29.208571    29.208571    29.208571   -6570.0852 
     270    293.67813    77.705916   -6642.7892   -6565.0832    24920.933   -372.57037    -592.0131   -271.86728   -253.83073    29.209319    29.209319    29.209319   -6570.8784 
     280    292.61715    77.425186   -6642.4363   -6565.0111    24922.813   -517.15211   -645.03553   -453.16251   -453.25829    29.210054    29.210054    29.210054   -6573.0557 
     290    293.94419    77.776314   -6642.6808   -6564.9045    24924.648   -709.93359   -789.23017   -674.00731   -666.56328     29.21077     29.21077     29.21077   -6575.9487 
     300    296.42658    78.433144   -6643.2022   -6564.7691    24926.421   -877.46148   -954.73624   -863.39157   -814.25663    29.211463    29.211463    29.211463   -6578.4205 
     310    298.33631     78.93845   -6643.5549   -6564.6164    24928.118   -982.68174   -1073.9836   -1014.4035   -859.65807    29.212126    29.212126    29.212126   -6579.9059 
     320    298.83788    79.071164   -6643.5275   -6564.4564    24929.728   -1040.2178   -1141.1653   -1127.0395   -852.44858    29.212755    29.212755    29.212755   -6580.6421 
     330    298.68805    79.031518   -6643.3238   -6564.2923    24931.248   -1126.2611   -1229.3844   -1230.7013   -918.69747    29.213349    29.213349    29.213349   -6581.8179 
     340    299.62911    79.280519   -6643.4046   -6564.1241    24932.668   -1280.0399   -1361.8882   -1358.6528   -1119.5786    29.213903    29.213903    29.213903   -6584.0437 
     350     302.5895    80.063826   -6644.0201   -6563.9562    24933.976   -1435.0435   -1472.8464   -1469.5497   -1362.7345    29.214414    29.214414    29.214414   -6586.2892 
     360    306.35463    81.060062   -6644.8628   -6563.8027    24935.159   -1492.1622    -1486.816   -1479.7359   -1509.9348    29.214876    29.214876    29.214876   -6587.0257 
     370    308.42486    81.607835   -6645.2903   -6563.6824    24936.212   -1427.9319   -1400.7005   -1367.1806   -1515.9146    29.215287    29.215287    29.215287   -6585.9067 
     380    306.79304    81.176064   -6644.7821    -6563.606    24937.139   -1291.0206   -1282.8836   -1194.4439   -1395.7344    29.215649    29.215649    29.215649   -6583.7001 
     390     301.4312    79.757344   -6643.3218   -6563.5645    24937.954   -1137.4843   -1177.2808   -1046.6403   -1188.5319    29.215968    29.215968    29.215968   -6581.2695 
     400    294.79592     78.00168   -6641.5319   -6563.5302    24938.669    -1007.702     -1079.37   -979.46385   -964.27216    29.216247    29.216247    29.216247   -6579.2156 
     410    290.27669    76.805911   -6640.2754   -6563.4695    24939.294   -936.89685   -996.74435   -1000.1425   -813.80368    29.216491    29.216491    29.216491   -6578.0531 
     420    289.88579    76.702482     -6640.06   -6563.3576    24939.837   -944.51743   -977.45568   -1051.0423   -805.05429    29.216703    29.216703    29.216703   -6578.0601 
     430    293.00441    77.527654   -6640.7129   -6563.1852    24940.297   -1020.7246   -1061.9543   -1059.5173    -940.7022    29.216882    29.216882    29.216882   -6579.0743 
     440    297.04851    78.597703   -6641.5554   -6562.9577    24940.666   -1098.0366   -1208.3513   -976.49603   -1109.2625    29.217027    29.217027    29.217027   -6580.0506 
     450    299.16946    79.158898   -6641.8455   -6562.6866     24940.94   -1115.8673   -1362.6294   -811.75223   -1173.2204    29.217134    29.217134    29.217134   -6580.0572 
     460    298.10676    78.877712   -6641.2548   -6562.3771    24941.116   -1098.0821   -1487.3884   -671.71235   -1135.1455    29.217202    29.217202    29.217202    -6579.471 
     470    295.29774    78.134457   -6640.1551   -6562.0206    24941.196   -1088.1504   -1522.6857   -667.90206   -1073.8636    29.217233    29.217233    29.217233   -6578.9599 
     480    294.05199    77.804838   -6639.4035   -6561.5987    24941.179    -1105.148   -1445.2521   -816.57382    -1053.618    29.217227    29.217227    29.217227   -6578.8026 
     490    297.34644    78.676535   -6639.7776    -6561.101    24941.065   -1167.0513   -1323.4555   -1049.9539   -1127.7447    29.217183    29.217183    29.217183   -6579.2685 
     500    305.66752    80.878255   -6641.4269   -6560.5487    24940.849   -1265.7876   -1247.2992   -1271.6471   -1278.4166    29.217098    29.217098    29.217098    -6580.253 
     510    316.08067    83.633529   -6643.6398   -6560.0063    24940.521    -1351.404   -1257.0647   -1385.1642   -1411.9831     29.21697     29.21697     29.21697   -6581.0432 
     520    323.69337    85.647814   -6645.2102   -6559.5624    24940.075   -1379.0106   -1333.5113   -1337.3689   -1466.1516    29.216796    29.216796    29.216796   -6581.0286 
     530    324.68086    85.909101   -6645.1891     -6559.28    24939.508   -1309.5586   -1402.8132   -1134.3566   -1391.5062    29.216574    29.216574    29.216574   -6579.6646 
     540    318.41746    84.251833   -6643.4131   -6559.1613    24938.827   -1097.8548   -1351.0646   -819.15599   -1123.3439    29.216309    29.216309    29.216309     -6576.25 
     550    307.73418    81.425085   -6640.5785   -6559.1534    24938.051    -802.6506   -1145.4088   -511.82137   -750.72157    29.216005    29.216005    29.216005   -6571.6468 
     560    297.33077     78.67239   -6637.8566   -6559.1842    24937.203   -530.05103   -827.53698   -321.67529   -440.94082    29.215674    29.215674    29.215674   -6567.4343 
     570    291.25146    77.063831   -6636.2616   -6559.1978    24936.309   -345.20115   -494.88597   -261.08433   -279.63316    29.215325    29.215325    29.215325   -6564.5705 
     580    291.28326    77.072245   -6636.2429   -6559.1707    24935.383    -291.6568   -308.45462    -301.3298   -265.18599    29.214963    29.214963    29.214963   -6563.7099 
     590    296.66887    78.497254   -6637.6083   -6559.1111    24934.431   -332.56197   -331.61169   -371.82129   -294.25292    29.214592    29.214592    29.214592   -6564.2867 
     600    304.65964    80.611574   -6639.6602   -6559.0486    24933.449   -401.00173   -511.16935   -414.93111   -276.90473    29.214208    29.214208    29.214208   -6565.2891 
     610    311.90281    82.528086   -6641.5487   -6559.0206    24932.433   -465.69186   -746.96604   -435.71922   -214.39031    29.213811    29.213811    29.213811   -6566.2675 
     620    315.95508    83.600298   -6642.6564   -6559.0561    24931.375   -533.48462   -952.01832   -483.45267   -164.98286    29.213398    29.213398    29.213398   -6567.3576 
     630    316.24229    83.676293   -6642.8418   -6559.1655    24930.271   -555.02786   -1002.4768   -530.28044   -132.32629    29.212967    29.212967    29.212967   -6567.8019 
     640    313.75151    83.017244   -6642.3571   -6559.3398    24929.119   -480.71778   -821.15052   -507.56808   -113.43474    29.212517    29.212517    29.212517   -6566.8196 
     650    309.99174    82.022425   -6641.5808   -6559.5584    24927.925   -362.61461   -509.36141   -425.10435   -153.37807     29.21205     29.21205     29.21205   -6565.2002 
     660    306.20841    81.021372   -6640.8195   -6559.7981    24926.699   -247.33095   -225.25468   -284.48118   -232.25697    29.211572    29.211572    29.211572   -6563.6461 
     670    302.95538    80.160636      -6640.2   -6560.0394    24925.451   -161.66544   -91.288344   -99.536804   -294.17119    29.211084    29.211084    29.211084   -6562.5545 
     680    300.53972    79.521463   -6639.7898   -6560.2683    24924.188   -150.13892   -147.07625    21.934015   -325.27453    29.210591    29.210591    29.210591   -6562.6039 
     690    299.52461    79.252868   -6639.7302   -6560.4774    24922.912   -185.75747   -284.51263    22.292501   -295.05228    29.210092    29.210092    29.210092   -6563.3669 
     700    300.53421    79.520004    -6640.187    -6560.667     24921.62   -229.67116   -414.01369   -77.152212   -197.84759    29.209587    29.209587    29.209587   -6564.2395 
     710    303.71548    80.361754   -6641.2095   -6560.8478    24920.307   -249.75809   -483.01971   -199.79962   -66.454936    29.209075    29.209075    29.209075   -6564.7325 
     720    308.03349     81.50428   -6642.5434   -6561.0391    24918.973   -221.17905   -465.77218   -256.17943    58.414473    29.208553    29.208553    29.208553   -6564.4791 
     730    311.72727    82.481639    -6643.746   -6561.2644     24917.62   -179.86508   -406.96287   -250.71058    118.07821    29.208025    29.208025    29.208025   -6564.0617 
     740    313.42277     82.93026   -6644.4719   -6561.5417    24916.251   -137.98759   -319.35881   -220.75323    126.14928     29.20749     29.20749     29.20749   -6563.6876 
     750    312.29485    82.631816   -6644.5063   -6561.8745     24914.87   -68.098962   -194.86179   -143.19989    133.76479     29.20695     29.20695     29.20695   -6562.9334 
     760    308.42923     81.60899   -6643.8561   -6562.2471    24913.483     59.18368  -0.56755525    16.332384    161.78621    29.206408    29.206408    29.206408   -6561.3268 
     770    302.91554    80.150094   -6642.7781    -6562.628    24912.102     227.3195     244.1456    235.01446    202.79844    29.205868    29.205868    29.205868   -6559.0934 
     780    297.30121    78.664567   -6641.6463   -6562.9817    24910.741    391.93151    457.96257     463.1493    254.68267    29.205336    29.205336    29.205336   -6556.8879 
     790    292.94357    77.511556   -6640.7923   -6563.2807    24909.414    520.36695     570.5873    657.19338    333.32016    29.204818    29.204818    29.204818   -6555.1904 
     800    290.65759    76.906696    -6640.418   -6563.5113    24908.132    608.11518     569.2763    794.24652    460.82271    29.204317    29.204317    29.204317   -6554.0573 
     810    290.91812     76.97563    -6640.649   -6563.6734    24906.903     671.6448    533.42745    856.60923    624.89771    29.203837    29.203837    29.203837   -6553.2322 
     820    293.57361    77.678261   -6641.4563    -6563.778    24905.733    699.60945    510.65115    841.73894    746.43824    29.203379    29.203379    29.203379   -6552.9027 
     830    297.56077    78.733246   -6642.5775   -6563.8442    24904.625    681.38211     495.6213    788.18886    760.33616    29.202946    29.202946    29.202946   -6553.2527 
     840     301.5098    79.778141   -6643.6728   -6563.8947    24903.575    606.07789    472.83304    722.74544     622.6552    29.202536    29.202536    29.202536   -6554.4741 
     850    304.33728    80.526281    -6644.477   -6563.9507    24902.579    503.88987    456.37087    648.60618    406.69257    29.202146    29.202146    29.202146   -6556.1188 
     860    305.41521    80.811496   -6644.8385    -6564.027    24901.627    459.12953      495.445     593.1141    288.82948    29.201774    29.201774    29.201774   -6556.8911 
     870    304.73301    80.630987   -6644.7602   -6564.1292    24900.716    472.33052    548.21971    534.96935    333.80249    29.201418    29.201418    29.201418   -6556.7884 
     880    302.84782    80.132177   -6644.3858   -6564.2536    24899.846    505.03411    547.81535    478.57366    488.71332    29.201078    29.201078    29.201078   -6556.4048 
     890    300.53308    79.519705   -6643.9102   -6564.3905    24899.021    548.73732    501.25458    460.56317    684.39421    29.200756    29.200756    29.200756   -6555.8627 
     900    298.58144    79.003311   -6643.5317   -6564.5284    24898.244    573.12787    426.02591    451.71058    841.64713    29.200452    29.200452    29.200452   -6555.6219 
     910    297.67934     78.76462   -6643.4233   -6564.6587    24897.516    575.53749    356.82514    465.64506    904.14227    29.200167    29.200167    29.200167   -6555.7149 
     920    298.07313    78.868814   -6643.6468    -6564.778     24896.84    603.21736    353.31362    566.02061    890.31786    29.199903    29.199903    29.199903   -6555.4043 
     930    299.17376    79.160035   -6644.0492   -6564.8892    24896.217    691.80419    448.08673    748.34041    878.98542    29.199659    29.199659    29.199659   -6554.1392 
     940    299.81639    79.330072   -6644.3282   -6564.9981    24895.655    805.50004    588.50706    937.55491    890.43813     29.19944     29.19944     29.19944   -6552.4817 
     950    299.05863    79.129572   -6644.2377   -6565.1081    24895.163    893.45924    700.41947    1051.1969    928.76139    29.199247    29.199247    29.199247   -6551.2252 
     960    296.90804    78.560537    -6643.776   -6565.2155     24894.75    956.82829     783.0293    1060.5252    1026.9304    29.199086    29.199086    29.199086   -6550.3482 
     970     294.3619    77.886838   -6643.1967   -6565.3099     24894.42    1004.0179    873.10138    995.08226    1143.8701    29.198957    29.198957    29.198957   -6549.7096 
     980    292.96365    77.516869   -6642.8961   -6565.3793    24894.178     1036.121    986.38449    922.28353    1199.6951    29.198862    29.198862    29.198862   -6549.2803 
     990    293.95833    77.780056   -6643.1969   -6565.4168    24894.027    1053.0149    1082.1583    893.38946     1183.497    29.198803    29.198803    29.198803   -6549.0555 
    1000    297.20234    78.638406   -6644.0646   -6565.4262    24893.969    1055.4525     1115.784    899.84679    1150.7266    29.198781    29.198781    29.198781    -6549.027 
    1010    300.97893    79.637676   -6645.0591   -6565.4214    24894.003    1058.0914     1093.935    926.68458    1153.6545    29.198794    29.198794    29.198794   -6548.9812 
    1020    303.01312    80.175914   -6645.5963   -6565.4204     24894.13    1083.0369    1041.5567    991.56195    1215.9919    29.198844    29.198844    29.198844   -6548.5925 
    1030    301.84226    79.866109   -6645.3007   -6565.4346    24894.353    1124.5577    979.17427    1075.8574    1318.6416    29.198931    29.198931    29.198931   -6547.9614 
    1040    297.64735    78.756154    -6644.216   -6565.4598    24894.674    1171.7978    956.36295    1147.2475    1411.7829    29.199056    29.199056    29.199056   -6547.2524 
    1050    292.24608    77.327004   -6642.8023   -6565.4753    24895.098    1213.3266    982.46898    1237.9305    1419.5803    29.199222    29.199222    29.199222   -6546.6223 
    1060    288.29513    76.281599   -6641.7329   -6565.4513    24895.629    1228.9577    1009.6544    1379.4545    1297.7642     29.19943     29.19943     29.19943    -6546.355 
    1070    287.91607    76.181303   -6641.5409   -6565.3596    24896.268    1193.3353    991.86788    1512.3433    1075.7949    29.199679    29.199679    29.199679   -6546.8163 
    1080    291.58363    77.151721   -6642.3341   -6565.1824    24897.011    1107.3363    917.75565    1560.5839    843.66928     29.19997     29.19997     29.19997   -6547.9749 
    1090    297.81386    78.800213   -6643.7192    -6564.919    24897.851    999.42612    825.22204    1473.3503    699.70601    29.200298    29.200298    29.200298   -6549.3879 
    1100    303.72074    80.363145   -6644.9522    -6564.589     24898.78    920.64723    784.86743    1269.0634    708.01084    29.200661    29.200661    29.200661   -6550.2816 
    1110    306.66947    81.143368   -6645.3682   -6564.2248     24899.79    895.52886    807.48089    1036.0041    843.10163    29.201056    29.201056    29.201056   -6550.3072 
    1120    305.75994     80.90271   -6644.7577    -6563.855     24900.88    903.79104     838.4954    857.57176     1015.306    29.201482    29.201482    29.201482   -6549.8084 
    1130    302.00733    79.909785   -6643.4003   -6563.4905    24902.049     917.7239    821.00357    776.67665    1155.4915    29.201939    29.201939    29.201939   -6549.2267 
    1140    297.81524    78.800577    -6641.925   -6563.1245    24903.299    910.83874    748.48888    768.94733      1215.08    29.202428    29.202428    29.202428   -6548.9669 
    1150    295.71277    78.244274   -6640.9886   -6562.7443     24904.63    863.21906    670.87422    760.88319    1157.8998    29.202948    29.202948    29.202948   -6549.3263 
    1160    296.73288    78.514189   -6640.8606   -6562.3464    24906.036    788.13958    629.38412    725.25134    1009.7833    29.203498    29.203498    29.203498   -6550.0947 
    1170    299.85499    79.340286   -6641.2834   -6561.9431    24907.513    699.54042     589.3741    676.03377    833.21339    29.204075    29.204075    29.204075    -6551.068 
    1180    302.85817    80.134913   -6641.6937   -6561.5588    24909.051    611.80319    515.40128    623.71924    696.28904    29.204676    29.204676    29.204676   -6552.0471 
    1190     303.8791    80.405048   -6641.6213   -6561.2163    24910.644    536.54869    399.97208    572.59329    637.08071    29.205299    29.205299    29.205299    -6552.874 
    1200     302.7605     80.10907   -6641.0334   -6560.9244    24912.285    470.39643    251.25674    541.70287    618.22967     29.20594     29.20594     29.20594   -6553.6101 
    1210    301.18543    79.692314   -6640.3685   -6560.6762    24913.968    397.13673    105.26398    529.88319    556.26302    29.206598    29.206598    29.206598   -6554.5007 
    1220    301.46764    79.766986   -6640.2274   -6560.4604    24915.686     281.4296   -36.254295    457.78696    422.75614    29.207269    29.207269    29.207269   -6556.0838 
    1230    304.76199    80.638656   -6640.9121   -6560.2735    24917.429     87.10955   -191.74582     233.5835    219.49097     29.20795     29.20795     29.20795   -6558.9187 
    1240    310.13736    82.060956    -6642.188   -6560.1271     24919.18   -157.29621   -329.63294   -110.05531   -32.200376    29.208634    29.208634    29.208634   -6562.5736 
    1250     314.9639    83.338035   -6643.3821   -6560.0441    24920.919   -365.63373   -409.37614   -418.99564   -268.52941    29.209314    29.209314    29.209314   -6565.7313 
    1260    316.62321    83.777082    -6643.822   -6560.0449    24922.627   -485.63465   -459.56816   -581.89701   -415.43877    29.209981    29.209981    29.209981   -6567.5992 
    1270     314.2338    83.144856    -6643.278   -6560.1332    24924.293   -545.63763   -550.36406    -631.8383   -454.71054    29.210632    29.210632    29.210632   -6568.6214 
    1280    308.97448    81.753262   -6642.0435   -6560.2903    24925.912   -566.94768   -668.37024   -621.38953   -411.08327    29.211264    29.211264    29.211264   -6569.1106 
    1290     303.4005    80.278412   -6640.7626   -6560.4842    24927.483   -553.00324   -735.24643   -566.64133   -357.12196    29.211878    29.211878    29.211878   -6569.0881 
    1300    300.13304    79.413858   -6640.0991   -6560.6853    24929.006   -530.12437   -713.71278   -525.80613   -350.85422    29.212473    29.212473    29.212473   -6568.9337 
    1310    300.26646    79.449159   -6640.3281   -6560.8789    24930.483   -543.15741   -650.33121   -567.09231   -412.04871     29.21305     29.21305     29.21305   -6569.3307 
    1320    302.59132    80.064305   -6641.1317   -6561.0674    24931.912   -612.97442   -621.21159    -672.3727   -545.33896    29.213608    29.213608    29.213608    -6570.606 
    1330     304.8038    80.649719   -6641.9122   -6561.2624    24933.287    -705.7881    -663.4336   -754.77016   -699.16053    29.214145    29.214145    29.214145    -6572.246 
    1340    305.20377    80.755548   -6642.2297   -6561.4742    24934.602    -788.0303    -779.4925    -769.7362   -814.86219    29.214658    29.214658    29.214658   -6573.7382 
    1350    303.28122    80.246851   -6641.9486   -6561.7018    24935.848   -832.26881   -894.86825   -739.30725   -862.63092    29.215145    29.215145    29.215145    -6574.655 
    1360    299.92275    79.358216   -6641.2906   -6561.9324    24937.021   -860.59954   -962.46261   -739.03172   -880.30429    29.215603    29.215603    29.215603   -6575.3272 
    1370    297.05259    78.598783   -6640.7469   -6562.1481     24938.12   -901.26912   -965.68102   -819.96728   -918.15906    29.216032    29.216032    29.216032   -6576.1765 
    1380    296.21345    78.376751    -6640.713   -6562.3362    24939.139   -963.69415   -926.89432   -969.13101   -995.05712     29.21643     29.21643     29.21643   -6577.3369 
    1390     297.3438    78.675835    -6641.171   -6562.4952    24940.074   -1052.8367   -920.49115   -1138.7448   -1099.2743    29.216795    29.216795    29.216795    -6578.884 
    1400    299.25603    79.181804   -6641.8141   -6562.6323    24940.916   -1163.7072   -989.08687   -1301.7537    -1200.281    29.217124    29.217124    29.217124   -6580.7476 
    1410    300.90437    79.617947    -6642.376   -6562.7581    24941.657   -1290.3065   -1130.5232   -1449.9301   -1290.4661    29.217413    29.217413    29.217413   -6582.8447 
    1420    302.16379    79.951185   -6642.8329   -6562.8817    24942.284    -1424.724   -1330.0075   -1571.9943   -1372.1701    29.217658    29.217658    29.217658   -6585.0615 
    1430    303.39928    80.278091   -6643.2886   -6563.0105    24942.786    -1555.029   -1545.6155    -1652.513   -1466.9585    29.217855    29.217855    29.217855   -6587.2193 
    1440    304.37913    80.537354   -6643.6881   -6563.1507    24943.152   -1650.1574    -1721.818   -1644.0918   -1584.5626    29.217997    29.217997    29.217997   -6588.8409 
    1450    304.04087     80.44785   -6643.7538    -6563.306    24943.374   -1691.2655    -1823.622   -1536.2303   -1713.9442    29.218084    29.218084    29.218084   -6589.6363 
    1460    301.57328    79.794939   -6643.2669    -6563.472    24943.447   -1669.9327   -1810.1294   -1389.1201   -1810.5484    29.218112    29.218112    29.218112   -6589.4703 
    1470    297.36668     78.68189   -6642.3157   -6563.6338    24943.374    -1597.203   -1693.4538   -1285.8526   -1812.3025    29.218084    29.218084    29.218084   -6588.4998 
    1480    292.90278    77.500761   -6641.2709   -6563.7702     24943.16   -1535.6374   -1572.2059   -1295.3568   -1739.3496       29.218       29.218       29.218   -6587.6774 
    1490    290.25579     76.80038   -6640.6622   -6563.8618     24942.81   -1532.8155   -1515.6293   -1423.9177   -1658.8995    29.217864    29.217864    29.217864   -6587.7248 
    1500    291.25938    77.065927   -6640.9669    -6563.901    24942.326   -1615.6524   -1546.3042   -1655.6705   -1644.9825    29.217675    29.217675    29.217675   -6589.0531 
    1510    296.33025    78.407657   -6642.3042   -6563.8966    24941.698   -1773.3566   -1645.6346   -1953.4663   -1720.9688    29.217429    29.217429    29.217429   -6591.5031 
    1520    303.75895    80.373256   -6644.2486   -6563.8754    24940.914    -1933.948    -1775.267   -2191.7567   -1834.8203    29.217123    29.217123    29.217123   -6593.9809 
    1530    310.31713    82.108522   -6645.9834   -6563.8748     24939.96   -2047.6348   -1937.5204   -2265.6194   -1939.7645    29.216751    29.216751    29.216751   -6595.7489 
    1540    313.07634    82.838596   -6646.7665   -6563.9279    24938.826    -2072.741   -2077.7707   -2162.0462   -1978.4059    29.216308    29.216308    29.216308   -6596.1913 
    1550    310.80267    82.236992   -6646.2823   -6564.0453    24937.511   -1963.7942   -2090.3264   -1902.0773   -1898.9787    29.215795    29.215795    29.215795   -6594.6113 
    1560    304.51858    80.574251   -6644.7826   -6564.2084    24936.024   -1734.8152   -1961.9372   -1546.7036   -1695.8047    29.215214    29.215214    29.215214   -6591.2088 
    1570    297.23784    78.647801   -6643.0269   -6564.3791    24934.384   -1445.9131   -1738.5283   -1219.7715   -1379.4396    29.214573    29.214573    29.214573   -6586.8816 
    1580    292.25313    77.328868   -6641.8493   -6564.5204    24932.616   -1168.7113    -1458.989   -1034.6247   -1012.5203    29.213883    29.213883    29.213883   -6582.7076 
    1590    291.26012    77.066121   -6641.6779   -6564.6118    24930.744   -963.33159    -1161.784   -1004.8962   -723.31459    29.213152    29.213152    29.213152   -6579.6017 
    1600    293.78579    77.734404   -6642.3879   -6564.6535    24928.787   -817.84554   -879.37364   -1006.9235   -567.23953    29.212387    29.212387    29.212387   -6577.3786 
    1610    297.58064    78.738503      -6643.4   -6564.6615    24926.758   -675.00108   -652.74937   -885.00049   -487.25338    29.211595    29.211595    29.211595   -6575.1632 
    1620    299.72053    79.304708   -6643.9606   -6564.6559    24924.669   -504.91647    -500.7759   -612.53808   -401.43542    29.210779    29.210779    29.210779   -6572.5108 
    1630    298.36524    78.946104   -6643.5937   -6564.6476    24922.535   -335.72085   -407.14367   -319.29839   -280.72048    29.209945    29.209945    29.209945   -6569.8699 
    1640     294.3313    77.878742   -6642.5095   -6564.6307     24920.37   -218.40171   -346.19709   -140.41322   -168.59482    29.209099    29.209099    29.209099   -6568.0278 
    1650    290.76775    76.935843   -6641.5251   -6564.5893    24918.186   -170.57441   -284.07374   -103.27192   -124.37756    29.208246    29.208246    29.208246   -6567.2422 
    1660    290.93735    76.980718   -6641.4935   -6564.5128    24915.985   -192.44936   -245.21834   -182.71931   -149.41044    29.207386    29.207386    29.207386   -6567.5057 
    1670    295.90208    78.294363   -6642.7029   -6564.4085    24913.767   -243.70596   -241.99469   -313.77194   -175.35125    29.206519    29.206519    29.206519   -6568.1981 
    1680    303.62046    80.336612   -6644.6397   -6564.3031    24911.527   -242.95366   -233.70771    -364.2342   -130.91907    29.205644    29.205644    29.205644   -6568.0806 
    1690    310.05568    82.039344   -6646.2718   -6564.2324    24909.266   -157.07049   -206.42528   -237.75367   -27.032523     29.20476     29.20476     29.20476   -6566.6744 
    1700    311.60264    82.448661   -6646.6702   -6564.2215    24906.991   -4.2518845    -164.0678    49.501722    101.81042    29.203871    29.203871    29.203871   -6564.2876 
    1710    307.37545    81.330165   -6645.5971    -6564.267    24904.716     202.5646   -60.811077    397.58545    270.91942    29.202982    29.202982    29.202982   -6561.1182 
    1720    299.87156     79.34467   -6643.6827   -6564.3381    24902.458    451.03392    143.90125    719.62687    489.57366    29.202099    29.202099    29.202099   -6557.3277 
    1730    293.37835    77.626597   -6642.0227   -6564.3961    24900.239    742.15934    452.12848    1024.2786    750.07099    29.201232    29.201232    29.201232   -6552.8618 
    1740    291.20675    77.052001   -6641.4672   -6564.4152    24898.085    1045.5606    815.35508    1293.5821    1027.7446     29.20039     29.20039     29.20039    -6548.167 
    1750    293.54456    77.670576   -6642.0618   -6564.3912    24896.023    1321.2775    1165.6203    1495.3171    1302.8951    29.199583    29.199583    29.199583   -6543.8601 
    1760     297.5492    78.730185   -6643.0683   -6564.3381    24894.075    1521.7815    1404.5744    1621.3587    1539.4114    29.198822    29.198822    29.198822   -6540.6932 
    1770    299.91186    79.355334   -6643.6309   -6564.2755    24892.259    1629.3154    1506.6675    1682.9636     1698.315    29.198112    29.198112    29.198112   -6538.9616 
    1780    299.12132     79.14616   -6643.3613   -6564.2152    24890.585    1693.7426    1555.8597    1730.9337    1794.4345    29.197458    29.197458    29.197458   -6537.9021 
    1790    295.91637    78.298144   -6642.4511    -6564.153     24889.06    1774.1482    1627.4867    1810.4731    1884.4848    29.196861    29.196861    29.196861   -6536.5924 
    1800    292.53101    77.402394    -6641.476   -6564.0736     24887.69    1849.6271       1704.4    1881.3927    1963.0887    29.196325    29.196325    29.196325   -6535.3421 
    1810    291.22073    77.055701    -6641.017   -6563.9613    24886.481    1900.9206    1761.9962    1927.6533    2013.1123    29.195853    29.195853    29.195853   -6534.4345 
    1820    292.94995    77.513242   -6641.3227   -6563.8095    24885.439    1935.4998    1795.2317    1979.6765    2031.5912    29.195445    29.195445    29.195445   -6533.7468 
    1830    296.92781    78.565767   -6642.1908   -6563.6251    24884.565     1907.078    1758.2272    1987.3053    1975.7015    29.195103    29.195103    29.195103   -6534.0049 
    1840    301.45869    79.764617   -6643.1913   -6563.4266    24883.858    1812.9205    1658.1354    1930.9969    1849.6291    29.194827    29.194827    29.194827   -6535.2697 
    1850    305.01777    80.706334   -6643.9437   -6563.2374    24883.309    1714.1981    1549.0439    1861.6056    1731.9449    29.194612    29.194612    29.194612   -6536.6143 
    1860    306.47413     81.09168    -6644.168   -6563.0763    24882.911    1655.5518    1474.8974    1809.2634    1682.4947    29.194457    29.194457    29.194457   -6537.3645 
    1870    305.47774     80.82804   -6643.7793   -6562.9513    24882.659    1646.7016    1466.4829    1783.0625    1690.5594    29.194358    29.194358    29.194358   -6537.3771 
    1880    302.98948    80.169659   -6643.0265   -6562.8568    24882.551    1677.9136     1518.212    1796.7479    1718.7808    29.194316    29.194316    29.194316   -6536.7981 
    1890    300.84324    79.601771   -6642.3815   -6562.7798     24882.59    1708.9088    1589.4112    1820.7011     1716.614    29.194331    29.194331    29.194331   -6536.2396 
    1900    300.50112    79.511249   -6642.2195   -6562.7083    24882.778    1718.3785    1627.1436    1818.7246    1709.2674    29.194405    29.194405    29.194405   -6536.0208 
    1910    302.14877    79.947211   -6642.5867   -6562.6395    24883.118    1715.1389    1618.6865    1782.3063    1744.4239    29.194537    29.194537    29.194537    -6536.002 
    1920    304.50243    80.569978   -6643.1508   -6562.5808    24883.608    1690.2066    1567.4267    1709.5641    1793.6291    29.194729    29.194729    29.194729     -6536.33 
    1930    305.58868    80.857394    -6643.401   -6562.5436    24884.246    1629.4138    1469.5431    1619.7773    1798.9211    29.194978    29.194978    29.194978   -6537.2363 
    1940    304.31226     80.51966   -6643.0537   -6562.5341    24885.027    1559.1936    1363.8467    1562.0811    1751.6529    29.195284    29.195284    29.195284   -6538.3167 
    1950    301.20094    79.696419   -6642.2433   -6562.5469    24885.945    1523.8789    1294.7548    1596.4588    1680.4232    29.195643    29.195643    29.195643   -6538.8771 
    1960    298.08388    78.871658    -6641.439   -6562.5674    24886.998    1501.8763    1246.1149    1686.9572    1572.5569    29.196055    29.196055    29.196055   -6539.2384 
    1970    297.14828    78.624104   -6641.2046   -6562.5805    24888.183    1452.0218    1195.8952    1729.5412    1430.6289    29.196518    29.196518    29.196518   -6540.0249 
    1980    299.45212     79.23369   -6641.8149   -6562.5812    24889.495    1353.4753    1149.8812    1623.6807    1286.8639    29.197031    29.197031    29.197031   -6541.5552 
    1990    304.17635      80.4837   -6643.0635   -6562.5798    24890.927     1215.498    1125.7534      1343.41    1177.3306    29.197591    29.197591    29.197591   -6543.6962 
    2000    308.91222    81.736788   -6644.3389   -6562.6021    24892.466    1075.8918    1130.3596    963.68014    1133.6356    29.198193    29.198193    29.198193   -6545.8864 
    2010     310.9187    82.267694   -6644.9479   -6562.6802    24894.101    955.19139    1143.2283    584.67703    1137.6688    29.198832    29.198832    29.198832   -6547.8388 
    2020    308.79638    81.706138    -6644.544   -6562.8379     24895.82    862.26509    1131.3448    327.07317    1128.3773    29.199504    29.199504    29.199504   -6549.4394 
    2030    303.34117    80.262714   -6643.3412   -6563.0784    24897.617    824.66404    1064.9033    327.83892    1081.2499    29.200207    29.200207    29.200207   -6550.2633 
    2040    297.02409    78.591242   -6641.9747   -6563.3835    24899.488    841.11407    937.74934     579.1609     1006.432    29.200938    29.200938    29.200938   -6550.3117 
    2050    292.51176    77.397301   -6641.1207   -6563.7234    24901.433    850.93483    779.65598     880.3922    892.75632    29.201699    29.201699    29.201699    -6550.498 
    2060    291.38996    77.100478    -6641.173   -6564.0725    24903.454    764.64904    593.23338    999.74919    700.96457    29.202488    29.202488    29.202488   -6552.1872 
    2070     293.4716     77.65127     -6642.07   -6564.4187    24905.542     566.5505    382.02719    849.07293    468.55139    29.203304    29.203304    29.203304   -6555.6118 
    2080    297.01115     78.58782    -6643.352   -6564.7642     24907.68    305.38021     162.6405    494.53701    258.96312     29.20414     29.20414     29.20414   -6560.0167 
    2090    299.87081    79.344472   -6644.4624   -6565.1179    24909.847    39.874149   -44.463383     94.59256    69.493271    29.204987    29.204987    29.204987    -6564.498 
    2100     300.6826    79.559268   -6645.0438   -6565.4845    24912.019    -175.5985   -203.13462   -212.46843   -111.19247    29.205836    29.205836    29.205836   -6568.2149 
    2110    299.39713    79.219139   -6645.0764   -6565.8572    24914.177   -322.60429   -286.95162   -408.77754   -272.08372    29.206679    29.206679    29.206679   -6570.8738 
    2120    297.08204    78.606577   -6644.8258   -6566.2193    24916.309   -455.93414   -360.15795   -568.41811   -439.22636    29.207512    29.207512    29.207512   -6573.3097 
    2130    295.13246    78.090725   -6644.6426   -6566.5519    24918.401   -624.52736   -516.65087   -729.28319   -627.64801     29.20833     29.20833     29.20833    -6576.265 
    2140    294.32203     77.87629   -6644.7189   -6566.8426     24920.44   -817.69994   -757.56988   -868.80643   -826.72352    29.209126    29.209126    29.209126   -6579.5612 
    2150    294.27965    77.865076   -6644.9527   -6567.0876    24922.408   -992.31988   -1017.9183   -970.76178   -988.27952    29.209895    29.209895    29.209895   -6582.5235 
    2160    294.20835     77.84621   -6645.1344   -6567.2881    24924.291   -1110.9073   -1230.7348    -1048.679   -1053.3081    29.210631    29.210631    29.210631     -6584.57 
    2170    293.81397    77.741859   -6645.1885   -6567.4466    24926.077   -1177.7795   -1379.4429   -1123.9207   -1029.9749    29.211329    29.211329    29.211329   -6585.7701 
    2180    293.18625    77.575766     -6645.14   -6567.5642    24927.761   -1222.6688   -1478.7882    -1212.499    -976.7191    29.211987    29.211987    29.211987   -6586.5873 
    2190    292.50372    77.395172   -6645.0361   -6567.6409    24929.339   -1287.7136   -1556.1752   -1312.2789   -994.68668    29.212603    29.212603    29.212603   -6587.6773 
    2200    292.01775    77.266588   -6644.9428   -6567.6762    24930.804   -1375.1057   -1614.6015   -1374.2842   -1136.4315    29.213175    29.213175    29.213175   -6589.0737 
    2210    291.81959    77.214156   -6644.8841   -6567.6699    24932.149    -1422.478   -1601.0382   -1347.6575   -1318.7383    29.213701    29.213701    29.213701   -6589.8057 
    2220    291.80351    77.209901   -6644.8322   -6567.6223    24933.371    -1434.172   -1551.6315   -1284.2206   -1466.6638    29.214178    29.214178    29.214178   -6589.9412 
    2230    291.91608    77.239686   -6644.7737    -6567.534    24934.467   -1449.0205   -1546.8209   -1270.9332   -1529.3074    29.214606    29.214606    29.214606   -6590.0849 
    2240    292.20338    77.315705   -6644.7211   -6567.4054    24935.436   -1479.1876   -1607.7389   -1324.2181   -1505.6058    29.214984    29.214984    29.214984   -6590.4267 
    2250    292.70175    77.447572   -6644.6854   -6567.2378    24936.275   -1523.2726   -1722.8291   -1385.6832   -1461.3056    29.215312    29.215312    29.215312   -6590.9461 
    2260    293.26717    77.597179   -6644.6305   -6567.0333    24936.981   -1590.5929   -1873.2505   -1443.4514    -1455.077    29.215588    29.215588    29.215588     -6591.79 
    2270    293.77361     77.73118   -6644.5262   -6566.7951    24937.547   -1664.6251   -2008.7729   -1510.4651   -1474.6375    29.215809    29.215809    29.215809   -6592.7046 
    2280    294.09303    77.815698   -6644.3429   -6566.5272    24937.968    -1704.459   -2069.5196   -1565.6647   -1478.1928    29.215973    29.215973    29.215973   -6593.0572 
    2290    293.89523     77.76336   -6643.9979   -6566.2346    24938.239   -1699.3427   -2050.1229   -1593.8849   -1454.0204    29.216079    29.216079    29.216079   -6592.6852 
    2300    293.07688    77.546829   -6643.4683   -6565.9214    24938.361   -1646.6402   -1946.9025   -1583.7743   -1409.2437    29.216127    29.216127    29.216127   -6591.5519 
    2310    292.31951    77.346431    -6642.938   -6565.5915    24938.339   -1575.2748   -1786.5103   -1549.0782    -1390.236    29.216118    29.216118    29.216118   -6590.1111 
    2320    292.84301    77.484947   -6642.7354   -6565.2505    24938.178   -1524.0668   -1645.2298    -1520.116   -1406.8547    29.216055    29.216055    29.216055   -6588.9728 
    2330    295.70944    78.243392   -6643.1538   -6564.9104    24937.883   -1487.4704   -1568.7491   -1492.2417   -1401.4203     29.21594     29.21594     29.21594   -6588.0629 
    2340    301.01085    79.646121   -6644.2398   -6564.5937    24937.457   -1444.2165   -1540.4657   -1436.3081   -1355.8758    29.215774    29.215774    29.215774   -6587.0725 
    2350    306.80697     81.17975   -6645.5095   -6564.3297    24936.904   -1399.9839   -1535.6404   -1350.6763   -1313.6349    29.215558    29.215558    29.215558   -6586.1196 
    2360    309.76906    81.963504   -6646.1069   -6564.1434    24936.228   -1324.1368   -1510.9126   -1227.2387    -1234.259    29.215294    29.215294    29.215294   -6584.7522 
    2370    307.33358    81.319088   -6645.3569   -6564.0378    24935.436   -1146.4214   -1360.9992   -1037.1989   -1041.0661    29.214984    29.214984    29.214984   -6581.8802 
    2380    299.50965    79.248912   -6643.2349    -6563.986    24934.544   -879.84248   -1071.5281    -796.7668    -771.2325    29.214636    29.214636    29.214636   -6577.6789 
    2390     289.3637    76.564338   -6640.5047   -6563.9404    24933.574    -592.9655   -725.76762   -553.32931   -499.79957    29.214257    29.214257    29.214257   -6573.1683 
    2400    281.60527    74.511493   -6638.3662   -6563.8547    24932.551   -348.15394   -429.84206   -344.13614   -270.48362    29.213857    29.213857    29.213857   -6569.2725 
    2410    279.89546    74.059085   -6637.7602   -6563.7011    24931.496    -208.7085   -293.24475   -212.20511   -120.67564    29.213445    29.213445    29.213445   -6566.9488 
    2420     284.8324    75.365377   -6638.8428   -6563.4774    24930.422   -217.19808   -359.25696    -190.1674   -102.16988    29.213026    29.213026    29.213026   -6566.8571 
    2430    293.90201    77.765155   -6640.9724   -6563.2072    24929.327   -330.36827   -537.60037   -251.48699   -202.01745    29.212598    29.212598    29.212598   -6568.3477 
    2440    303.31015    80.254505   -6643.1877   -6562.9332    24928.202   -485.05403   -704.68792   -381.73645   -368.73771    29.212159    29.212159    29.212159   -6570.4801 
    2450    310.13446    82.060187   -6644.7612   -6562.7011    24927.035   -600.38861   -743.74284   -527.92596   -529.49703    29.211703    29.211703    29.211703    -6572.042 
    2460     313.0361    82.827949   -6645.3699   -6562.5419    24925.815   -616.12505   -602.20126   -606.95755   -639.21634    29.211226    29.211226    29.211226   -6572.1273 
    2470    312.28019     82.62794   -6645.0921   -6562.4642    24924.541   -544.29237   -353.71941    -603.4701    -675.6876    29.210729    29.210729    29.210729   -6570.9316 
    2480    309.26444    81.829984   -6644.2867   -6562.4567     24923.22   -430.03118   -130.46351   -554.30336   -605.32669    29.210212    29.210212    29.210212   -6569.1462 
    2490    305.40331    80.808346   -6643.3064   -6562.4981     24921.86    -285.2305   -5.1761599   -444.37896   -406.13637    29.209681    29.209681    29.209681   -6566.9348 
    2500    301.69334    79.826705   -6642.3921   -6562.5654    24920.474    -99.38102    43.783693   -234.63215    -107.2946     29.20914     29.20914     29.20914   -6564.1112 
    2510     298.6781    79.028886   -6641.6677   -6562.6388     24919.08     81.17186    38.849654    9.6973014    194.96863    29.208595    29.208595    29.208595   -6561.3763 
    2520    296.37548    78.419624   -6641.1229   -6562.7033    24917.691    217.50218    32.591569    201.67852    418.23646    29.208053    29.208053    29.208053   -6559.3206 
    2530    294.60817    77.952001   -6640.6998   -6562.7478    24916.321    304.40036    82.804413    292.37328    538.02338    29.207517    29.207517    29.207517   -6558.0139 
    2540    293.58834     77.68216   -6640.4463   -6562.7641    24914.977    353.29636    190.65824    297.32333     571.9075    29.206992    29.206992    29.206992   -6557.2701 
    2550    294.12443    77.824006   -6640.5719   -6562.7479    24913.663    395.16485    343.62997    285.38697    556.47761    29.206478    29.206478    29.206478   -6556.6032 
    2560    296.64518    78.490985   -6641.1925   -6562.7015    24912.383    421.77877    482.11083    286.65547    496.57001    29.205978    29.205978    29.205978   -6556.1432 
    2570    300.63955    79.547876   -6642.1839   -6562.6361    24911.139    401.50499    535.15638    282.00677    387.35183    29.205492    29.205492    29.205492   -6556.3933 
    2580    305.07794    80.722255   -6643.2934   -6562.5712     24909.93    345.37737      492.201    260.62888    283.30222     29.20502     29.20502     29.20502   -6557.2014 
    2590    308.62077    81.659671     -6644.19   -6562.5303    24908.751    280.90642    398.58808    214.54752    229.58368    29.204559    29.204559    29.204559   -6558.1631 
    2600    310.03057      82.0327   -6644.5668   -6562.5341    24907.596    234.82644     317.5225    173.35027    213.60654    29.204107    29.204107    29.204107   -6558.8834 
    2610    309.08397    81.782232   -6644.3756   -6562.5934    24906.461    270.02682    333.50111    217.59507    258.98427    29.203664    29.203664    29.203664   -6558.3957 
    2620    306.47288    81.091351   -6643.7982   -6562.7068    24905.351    398.48255    469.81653    355.04017    370.59095     29.20323     29.20323     29.20323   -6556.5126 
    2630    303.22191    80.231158   -6643.0952   -6562.8641    24904.275    543.91295    651.10028    502.06255    478.57603    29.202809    29.202809    29.202809   -6554.4095 
    2640    300.25387    79.445828   -6642.4969    -6563.051    24903.246    647.86494    793.59067     618.9944    531.00974    29.202407    29.202407    29.202407    -6552.981 
    2650     298.0853    78.872035   -6642.1265   -6563.2544    24902.273    726.39825    871.01768    754.37623    553.80083    29.202027    29.202027    29.202027   -6551.9642 
    2660    296.99674    78.584005   -6642.0487   -6563.4647    24901.364      800.662    894.56964    906.10298    601.31338    29.201671    29.201671    29.201671   -6551.0207 
    2670    296.95956    78.574167   -6642.2517   -6563.6775    24900.524    858.62524    860.38665    1001.5348    713.95427    29.201343    29.201343    29.201343    -6550.333 
    2680    297.68412    78.765883   -6642.6592   -6563.8933    24899.759    870.71559    760.19499    989.69462    862.25715    29.201044    29.201044    29.201044   -6550.3613 
    2690    299.07467    79.133817   -6643.2507   -6564.1169     24899.07    852.85734    650.84681    914.27197    993.45324    29.200775    29.200775    29.200775   -6550.8628 
    2700    300.91155    79.619847   -6643.9769   -6564.3571    24898.455    829.05791    597.52075    827.91905    1061.7339    29.200534    29.200534    29.200534   -6551.4732 
    2710    302.33258    79.995844   -6644.6205   -6564.6247    24897.913    803.06437    627.82755    756.19478    1025.1708    29.200323    29.200323    29.200323    -6552.145 
    2720    302.26881    79.978972   -6644.9062   -6564.9272    24897.441    787.58543    723.87835    746.95509    891.92284    29.200138    29.200138    29.200138   -6552.6883 
    2730    300.07236      79.3978   -6644.6595   -6565.2617    24897.039    834.58775    870.00287    865.33554    768.42484    29.199981    29.199981    29.199981   -6552.2926 
    2740    295.93031    78.301833   -6643.9126   -6565.6107     24896.71    955.34962    1024.3419    1075.2461     766.4609    29.199852    29.199852    29.199852   -6550.7653 
    2750    290.93554    76.980239    -6642.926   -6565.9458    24896.465    1091.2937    1093.8378    1263.4288    916.61454    29.199756    29.199756    29.199756    -6548.988 
    2760    286.63137    75.841375   -6642.0776   -6566.2362    24896.315    1188.4298    1053.9278    1364.4369    1146.9246    29.199698    29.199698    29.199698   -6547.7691 
    2770    284.26208    75.214471    -6641.674   -6566.4596    24896.269    1195.1494    921.48281    1352.0849    1311.8805     29.19968     29.19968     29.19968   -6547.8881 
    2780    284.42153    75.256661   -6641.8622   -6566.6055    24896.327    1091.5037      719.101    1229.9305    1325.4796    29.199703    29.199703    29.199703   -6549.6446 
    2790    287.11485    75.969303   -6642.6453    -6566.676    24896.481    923.84732     514.0543    1042.8734    1214.6143    29.199763    29.199763    29.199763   -6552.3202 
    2800    291.90355     77.23637   -6643.9196   -6566.6833    24896.716    725.60218      351.677    822.47033    1002.6592    29.199854    29.199854    29.199854   -6555.4079 
    2810    297.91072    78.825841   -6645.4744   -6566.6486    24897.014    513.42524     221.5667     604.7219    713.98712    29.199971    29.199971    29.199971   -6558.6702 
    2820    303.64383    80.342797   -6646.9427   -6566.5999    24897.358    307.67262      78.5581    426.88579    417.57398    29.200106    29.200106    29.200106   -6561.8188 
    2830    307.30526    81.311595   -6647.8778   -6566.5662     24897.73    152.22239   -52.927936     304.7304    204.86472    29.200251    29.200251    29.200251   -6564.2007 
    2840    307.77529    81.435961    -6648.005    -6566.569    24898.116    87.675549   -95.541166    239.58408    118.98373    29.200402    29.200402    29.200402   -6565.2065 
    2850    305.02239    80.707557   -6647.3225   -6566.6149    24898.511    117.43003   -34.064955    244.77923     141.5758    29.200556    29.200556    29.200556     -6564.79 
    2860    299.82114    79.331329   -6646.0255   -6566.6942    24898.917    182.91241    62.288604    278.15742     208.2912    29.200715    29.200715    29.200715   -6563.8516 
    2870    293.79013    77.735551   -6644.5196   -6566.7841    24899.339     256.4972    147.60271    315.41168    306.47722     29.20088     29.20088     29.20088   -6562.7978 
    2880     289.0043    76.469243   -6643.3252   -6566.8559    24899.785    362.77407    247.19654    385.07542    456.05026    29.201054    29.201054    29.201054    -6561.218 
    2890     287.0477    75.951535   -6642.8345    -6566.883    24900.263    498.91914    373.71609    488.20165    634.83968    29.201241    29.201241    29.201241    -6559.129 
    2900     288.2021    76.256983   -6643.1017   -6566.8447    24900.786    603.18018    461.35222    558.34235    789.84595    29.201445    29.201445    29.201445   -6557.4701 
    2910    291.45301    77.117159   -6643.8454   -6566.7283    24901.361    631.59249    468.98412    544.65343    881.13991     29.20167     29.20167     29.20167   -6556.9119 
    2920    295.30595     78.13663   -6644.6657   -6566.5291    24901.991    595.91565    448.00152    471.51943    868.22601    29.201917    29.201917    29.201917    -6557.267 
    2930    298.32435    78.935287   -6645.1858   -6566.2505    24902.675    538.29296    451.79287    420.59526    742.49076    29.202184    29.202184    29.202184   -6557.8838 
    2940    299.87806    79.346391    -6645.249   -6565.9026    24903.406    497.19442    481.06348    439.37828    571.14148     29.20247     29.20247     29.20247   -6558.1744 
    2950    300.11576    79.409286   -6644.9088   -6565.4995    24904.182    493.02371    514.11378    506.47494     458.4824    29.202773    29.202773    29.202773   -6557.8359 
    2960    299.44482    79.231757   -6644.2892   -6565.0574    24905.003    521.44662    530.38938     563.8842    470.06627    29.203094    29.203094    29.203094   -6556.9518 
    2970    298.47096    78.974079   -6643.5671    -6564.593     24905.87    546.06785    503.45261    564.16404    570.58689    29.203433    29.203433    29.203433   -6556.1044 
    2980    297.49835     78.71673   -6642.8391   -6564.1224    24906.785    562.53358    446.63313     548.0628     692.9048    29.203791    29.203791    29.203791   -6555.3775 
    2990    296.35526    78.414272    -6642.074   -6563.6597    24907.751    591.41444    414.18012    576.19113    783.87208    29.204168    29.204168    29.204168   -6554.4654 
    3000    295.13445    78.091253    -6641.306   -6563.2148     24908.77    619.05656    435.25865    609.24507    812.66595    29.204566    29.204566    29.204566   -6553.5904 
    3010    294.53513    77.932675   -6640.7247    -6562.792    24909.844    621.68485    495.03828    591.30253    778.71375    29.204986    29.204986    29.204986   -6553.1264 
    3020    295.42336    78.167696   -6640.5611   -6562.3934    24910.973     591.5454    546.53109     552.2149     675.8902    29.205427    29.205427    29.205427   -6553.1959 
    3030    298.23234    78.910941   -6640.9339    -6562.023    24912.156    537.89234    569.99135    526.04419    517.64149    29.205889    29.205889    29.205889   -6553.6593 
    3040    302.48104    80.035126   -6641.7257   -6561.6905    24913.386    449.39974    557.08704    445.92503    345.18715     29.20637     29.20637     29.20637   -6554.7025 
    3050    306.66952     81.14338   -6642.5532   -6561.4098    24914.657     309.9142    452.07229    272.74166    204.92866    29.206867    29.206867    29.206867   -6556.5905 
    3060     309.2248    81.819495   -6643.0125    -6561.193    24915.956    182.95834    289.78669    98.196259    160.89207    29.207374    29.207374    29.207374   -6558.3478 
    3070    309.54208    81.903446   -6642.9478   -6561.0444    24917.273    109.21103    144.41893   -14.841448    198.05562    29.207889    29.207889    29.207889   -6559.3459 
    3080    307.88523    81.465051   -6642.4225   -6560.9574    24918.601    82.998298    48.775379   -51.676197    251.89571    29.208408    29.208408    29.208408   -6559.6665 
    3090    305.04953    80.714737   -6641.6322   -6560.9174    24919.938    87.065279    23.965901   -17.976197    255.20613     29.20893     29.20893     29.20893   -6559.5632 
    3100    302.00779    79.909907    -6640.816   -6560.9061    24921.284    71.699217     25.16745    14.778104     175.1521    29.209456    29.209456    29.209456   -6559.7908 
    3110    299.50569    79.247864   -6640.1538   -6560.9059    24922.637    3.1555336   -21.538112   -12.205978     43.21069    29.209985    29.209985    29.209985   -6560.8568 
    3120    298.07693    78.869818   -6639.7733   -6560.9035    24923.991   -83.465723   -129.58845   -53.596087   -67.212632    29.210514    29.210514    29.210514   -6562.2019 
    3130    298.15758     78.89116   -6639.7829   -6560.8917    24925.339   -165.36044      -295.73   -65.474039   -134.87729    29.211041    29.211041    29.211041   -6563.4643 
    3140    299.86041    79.341719   -6640.2126   -6560.8709    24926.674   -277.92276   -511.59669   -95.824629   -226.34695    29.211562    29.211562    29.211562   -6565.1948 
    3150    302.77769    80.113619   -6640.9629   -6560.8493    24927.986   -446.46373   -754.86236   -194.29898   -390.22987    29.212074    29.212074    29.212074   -6567.7958 
    3160    306.31851    81.050506   -6641.8928   -6560.8423    24929.259   -657.97358   -1008.8792   -368.81364   -596.22792    29.212572    29.212572    29.212572   -6571.0801 
    3170     309.6898    81.942533   -6642.8122   -6560.8697    24930.475   -880.35456   -1236.3377    -612.6535   -792.07244    29.213047    29.213047    29.213047   -6574.5683 
    3180    311.87122    82.519726   -6643.4715   -6560.9518    24931.616   -1074.1911     -1393.64   -891.52144   -937.41177    29.213492    29.213492    29.213492   -6577.6673 
    3190     312.0209     82.55933   -6643.6625   -6561.1032    24932.664   -1202.5956   -1482.6262   -1139.4321   -985.72846    29.213901    29.213901    29.213901   -6579.8177 
    3200    309.80992    81.974317   -6643.3011   -6561.3268    24933.607   -1264.0108   -1557.2443   -1295.1063   -939.68188     29.21427     29.21427     29.21427   -6580.9977 
    3210    305.80463    80.914534   -6642.5246     -6561.61     24934.44   -1271.9797   -1628.9523    -1341.202   -845.78493    29.214595    29.214595    29.214595   -6581.4057 
    3220    301.48817    79.772418   -6641.7011   -6561.9287    24935.163   -1254.0853   -1663.2278   -1334.7476   -764.28034    29.214878    29.214878    29.214878   -6581.4464 
    3230    298.59939     79.00806   -6641.2644   -6562.2564    24935.776   -1246.9233   -1639.3215   -1311.3984   -790.04997    29.215117    29.215117    29.215117   -6581.6631 
    3240    298.20602    78.903977   -6641.4793   -6562.5753     24936.28   -1282.6824   -1577.5065   -1274.0488    -996.4918    29.215314    29.215314    29.215314    -6582.539 
    3250    299.87453    79.345456   -6642.2267   -6562.8812    24936.671   -1336.2508   -1501.7364   -1231.2513   -1275.7646    29.215467    29.215467    29.215467    -6583.679 
    3260    301.70397    79.829517   -6643.0089   -6563.1794    24936.945   -1366.6707   -1444.1016   -1214.2535   -1441.6571    29.215574    29.215574    29.215574   -6584.4508 
    3270    301.80789    79.857014   -6643.3311   -6563.4741      24937.1   -1360.1722   -1446.9964   -1217.9011    -1415.619    29.215634    29.215634    29.215634   -6584.6445 
    3280     299.7769    79.319623   -6643.0804   -6563.7608    24937.135   -1323.1892   -1510.3904   -1202.8409   -1256.3363    29.215648    29.215648    29.215648   -6584.3556 
    3290    296.88817    78.555279   -6642.5811   -6564.0258    24937.055   -1276.3614   -1586.5403   -1140.0229    -1102.521    29.215616    29.215616    29.215616   -6583.8917 
    3300    295.01086    78.058552   -6642.3137   -6564.2552    24936.862   -1252.6536   -1635.3369   -1062.7353   -1059.8886    29.215541    29.215541    29.215541   -6583.7519 
    3310     295.1724    78.101295   -6642.5444   -6564.4431    24936.558   -1250.0909   -1621.0206   -1028.2855   -1100.9666    29.215422    29.215422    29.215422   -6583.8998 
    3320    296.66261    78.495598   -6643.0898   -6564.5942    24936.144   -1235.4985   -1538.2979   -1046.3525   -1121.8451    29.215261    29.215261    29.215261   -6583.8234 
    3330     297.6597    78.759423   -6643.4771   -6564.7177    24935.622   -1211.2877   -1429.2916   -1121.8694    -1082.702    29.215057    29.215057    29.215057   -6583.5697 
    3340    296.92414    78.564797   -6643.3847   -6564.8199    24934.992   -1182.5446   -1314.6708   -1233.9624   -999.00054    29.214811    29.214811    29.214811    -6583.224 
    3350    294.62518    77.956501   -6642.8549   -6564.8984    24934.259   -1140.3814   -1197.7108    -1318.432   -905.00151    29.214524    29.214524    29.214524   -6582.6459 
    3360    292.21676    77.319245   -6642.2636   -6564.9444    24933.424   -1112.9614   -1113.8218   -1351.8702   -873.19218    29.214198    29.214198    29.214198   -6582.2645 
    3370    291.68676    77.179009   -6642.1286   -6564.9496     24932.49   -1127.8529   -1072.3624   -1360.8306   -950.36562    29.213834    29.213834    29.213834   -6582.5008 
    3380    294.18991    77.841332   -6642.7557   -6564.9143    24931.457   -1177.9674   -1058.8277   -1362.9421   -1112.1325     29.21343     29.21343     29.21343   -6583.2447 
    3390    299.11995    79.145798   -6643.9977   -6564.8519    24930.318   -1254.0225   -1074.1375   -1368.4615   -1319.4687    29.212985    29.212985    29.212985   -6584.3648 
    3400     304.4645    80.559942   -6645.3465   -6564.7866    24929.069   -1312.6245   -1088.3117   -1358.4909   -1491.0708    29.212497    29.212497    29.212497   -6585.2104 
    3410    307.84028    81.453158   -6646.1984   -6564.7453    24927.704   -1288.8339   -1061.7147   -1290.5811   -1514.2059    29.211964    29.211964    29.211964   -6584.7978 
    3420    307.46691    81.354366   -6646.0993   -6564.7449    24926.225   -1173.2338   -982.21075    -1166.989   -1370.5016    29.211387    29.211387    29.211387   -6582.9978 
    3430    303.06513    80.189673    -6644.972   -6564.7824    24924.643   -965.03859   -813.21585   -996.77081   -1085.1291    29.210768    29.210768    29.210768   -6579.7952 
    3440    296.21518     78.37721   -6643.2107   -6564.8335    24922.974   -702.62798   -564.40304   -816.40525   -727.07565    29.210117    29.210117    29.210117   -6575.7633 
    3450    289.85431    76.694151   -6641.5581   -6564.8639    24921.243    -471.3352   -318.28435   -669.90662   -425.81464     29.20944     29.20944     29.20944   -6572.1954 
    3460    286.97929    75.933434   -6640.7773   -6564.8439    24919.468    -300.2199   -133.17314   -543.08445   -224.40212    29.208747    29.208747    29.208747   -6569.5134 
    3470    288.88328     76.43722    -6641.196   -6564.7587    24917.665   -187.47336   -49.750316   -418.43892   -94.230851    29.208042    29.208042    29.208042   -6567.6744 
    3480    294.23844    77.854173   -6642.4666   -6564.6124    24915.844   -141.52683   -84.422992   -317.39789   -22.759621    29.207331    29.207331    29.207331   -6566.8133 
    3490    300.07632     79.39885   -6643.8235   -6564.4246    24914.008   -160.45013   -206.24305   -266.85857   -8.2487657    29.206613    29.206613    29.206613   -6566.9197 
    3500    303.89426     80.40906   -6644.6302   -6564.2212    24912.156   -217.77357   -345.60023   -270.83838   -36.882087     29.20589     29.20589     29.20589   -6567.6073 
    3510    305.12231    80.733995   -6644.7552   -6564.0212    24910.284    -251.5862   -404.94247   -280.14866   -69.667453    29.205158    29.205158    29.205158   -6567.9328 
    3520    305.17523    80.747999   -6644.5796   -6563.8316    24908.389   -190.26139   -295.28565   -227.61872   -47.879784    29.204417    29.204417    29.204417   -6566.7895 
    3530    305.57201    80.852983   -6644.5042   -6563.6512    24906.477   -15.064042   -6.9090525   -115.56678    77.283708     29.20367     29.20367     29.20367   -6563.8853 
    3540    306.31219    81.048831   -6644.5273   -6563.4785    24904.562    197.22302    343.34712   -4.3115661     252.6335    29.202921    29.202921    29.202921   -6560.4128 
    3550    306.29833    81.045164   -6644.3585   -6563.3134    24902.662    399.57189    637.76548    133.73262    427.21757    29.202179    29.202179    29.202179   -6557.1028 
    3560    304.51069    80.572163   -6643.7242    -6563.152    24900.797    617.80974    843.12131    382.64215    627.66577     29.20145     29.20145     29.20145   -6553.5501 
    3570    300.92148    79.622474   -6642.6027   -6562.9802    24898.984    870.25647    980.91548    739.50537    890.34856    29.200741    29.200741    29.200741   -6549.4558 
    3580    296.80175    78.532414   -6641.3031   -6562.7707    24897.246    1157.3373    1117.9114    1140.5945    1213.5059    29.200062    29.200062    29.200062   -6544.7861 
    3590    294.01324    77.794586    -6640.282   -6562.4874    24895.609    1430.7458    1280.1983    1499.9114    1512.1278    29.199422    29.199422    29.199422   -6540.2556 
    3600    293.95573    77.779369   -6639.8756   -6562.0963    24894.094    1599.7144    1390.5463    1721.6804    1686.9166     29.19883     29.19883     29.19883   -6537.2404 
    3610    297.12936    78.619096   -6640.2024   -6561.5834    24892.718     1666.814    1442.2367    1775.3986    1782.8068    29.198292    29.198292    29.198292   -6535.6864 
    3620    302.84831    80.132305   -6641.1068   -6560.9745    24891.487    1675.6022    1472.5027    1694.8621    1859.4418     29.19781     29.19781     29.19781   -6534.9422 
    3630    309.41422    81.869615   -6642.2089   -6560.3393    24890.401    1658.1436    1493.6972    1557.8017    1922.9318    29.197386    29.197386    29.197386   -6534.5795 
    3640    314.86708    83.312417   -6643.0766   -6559.7642     24889.46    1666.3992    1517.8345    1488.4051    1992.9579    29.197018    29.197018    29.197018    -6533.877 
    3650    317.48176    84.004251   -6643.3155   -6559.3112    24888.665    1727.6035    1540.2219    1595.6485      2046.94    29.196707    29.196707    29.196707   -6532.4741 
    3660    316.42084    83.723536   -6642.7229   -6558.9994    24888.021    1822.5311    1562.0379    1837.8354    2067.7201    29.196455    29.196455    29.196455   -6530.6884 
    3670    312.46101    82.675782   -6641.4865   -6558.8107    24887.537    1921.9327    1628.2334    2059.8023    2077.7625    29.196265    29.196265    29.196265   -6528.9562 
    3680    307.64826    81.402349   -6640.1112   -6558.7089     24887.22    2033.4267    1768.1454    2209.0346    2123.1002    29.196142    29.196142    29.196142   -6527.1229 
    3690    304.13604    80.473032   -6639.1311   -6558.6581    24887.082    2174.6731    1958.1328    2327.7263    2238.1601    29.196088    29.196088    29.196088   -6524.8782 
    3700    303.01387    80.176111   -6638.8105   -6558.6344    24887.134    2308.2706    2136.6908    2414.1827    2373.9384    29.196108    29.196108    29.196108   -6522.7793 
    3710    303.86716    80.401889   -6639.0311   -6558.6292    24887.389    2367.9992    2204.0424    2446.5414    2453.4139    29.196208    29.196208    29.196208   -6521.8459 
    3720    305.35332    80.795121   -6639.4403   -6558.6452     24887.85    2332.3425    2118.7149    2429.8696     2448.443    29.196388    29.196388    29.196388   -6522.4151 
    3730    306.15207    81.006465   -6639.6954   -6558.6889    24888.517    2245.2995     1981.588    2367.5199    2386.7905    29.196649    29.196649    29.196649     -6523.81 
    3740    305.74918    80.899862   -6639.6637   -6558.7638    24889.381    2161.4437    1901.9455    2283.0488    2299.3367    29.196987    29.196987    29.196987   -6525.1864 
    3750    304.82164    80.654438   -6639.5223   -6558.8678    24890.436    2085.3998    1863.4405    2198.2323    2194.5266    29.197399    29.197399    29.197399   -6526.4703 
    3760    304.39935    80.542705   -6639.5397    -6558.997    24891.675    1982.4576    1805.1867    2095.1464    2047.0396    29.197884    29.197884    29.197884   -6528.1973 
    3770    304.89082    80.672745   -6639.8229   -6559.1501    24893.089     1841.932    1728.2316    1950.7648    1846.7996    29.198436    29.198436    29.198436   -6530.5319 
    3780    306.13128    81.000963   -6640.3317   -6559.3307    24894.666    1670.3573    1626.8497    1752.6831    1631.5391    29.199053    29.199053    29.199053   -6533.3766 
    3790    307.74417    81.427729    -6640.974   -6559.5462    24896.391     1483.041    1481.4854    1504.3786     1463.259    29.199728    29.199728    29.199728   -6536.5011 
    3800    309.26033    81.828897   -6641.6346   -6559.8057    24898.249    1310.6358    1293.9802    1245.2351    1392.6922    29.200454    29.200454    29.200454   -6539.4381 
    3810    310.13647    82.060718   -6642.1763   -6560.1156    24900.224    1145.5838    1058.1369    1015.9318    1362.6828    29.201226    29.201226    29.201226   -6542.3115 
    3820    309.92346    82.004357   -6642.4801   -6560.4757    24902.302    979.91804    825.24594    849.07791    1265.4303    29.202038    29.202038    29.202038   -6545.2451 
    3830    308.14396    81.533511   -6642.4082   -6560.8747    24904.469    820.64323    643.18762    740.68701     1078.055    29.202885    29.202885    29.202885   -6548.1185 
    3840    304.67125    80.614646   -6641.9024   -6561.2878     24906.71    666.88309     499.6265    671.30507    829.71768    29.203761    29.203761    29.203761   -6550.9207 
    3850    300.37266     79.47726   -6641.1587   -6561.6814    24909.013    502.13013    337.47087    609.16466    559.75487    29.204661    29.204661    29.204661   -6553.8748 
    3860    297.10795    78.613432   -6640.6392   -6562.0257    24911.362    323.01303    139.82219    502.20899    327.00789    29.205579    29.205579    29.205579   -6557.0034 
    3870    296.60944    78.481527   -6640.7884   -6562.3069    24913.743    138.12718   -58.080818     302.6165    169.84587     29.20651     29.20651     29.20651    -6560.159 
    3880    299.25231    79.180819   -6641.7119   -6562.5311    24916.139    -67.17356   -244.53181   -12.494442    55.505569    29.207446    29.207446    29.207446   -6563.5757 
    3890    303.98161    80.432172   -6643.1524   -6562.7202    24918.531   -274.82074   -394.49402   -373.84281   -56.125374    29.208381    29.208381    29.208381   -6566.9945 
    3900    308.44907    81.614241    -6644.517   -6562.9028    24920.903   -438.09533   -478.24753   -654.74129   -181.29718    29.209307    29.209307    29.209307   -6569.7171 
    3910    310.04918    82.037622   -6645.1388   -6563.1012    24923.239   -536.75456   -514.67911   -783.43948   -312.14509     29.21022     29.21022     29.21022   -6571.4508 
    3920    307.58907     81.38669   -6644.7065   -6563.3198    24925.532   -592.05758   -549.59769   -790.08694   -436.48811    29.211116    29.211116    29.211116   -6572.5306 
    3930    301.72919    79.836192   -6643.3783   -6563.5421    24927.775    -648.5694   -629.76148   -756.31478   -559.63192    29.211992    29.211992    29.211992    -6573.633 
    3940    294.66199    77.966241   -6641.7051   -6563.7389    24929.964    -753.8945   -762.11728   -799.92371   -699.64252    29.212847    29.212847    29.212847   -6575.4695 
    3950    289.53294    76.609118    -6640.492   -6563.8828    24932.089   -896.87134   -889.89981   -969.85348   -830.86073    29.213677    29.213677    29.213677   -6577.8394 
    3960    288.75897    76.404329   -6640.3656   -6563.9612    24934.137   -1050.1653   -979.86076   -1220.5767    -950.0584    29.214477    29.214477    29.214477   -6580.3046 
    3970     292.4269    77.374846   -6641.3546   -6563.9798    24936.095   -1237.0814   -1084.5288    -1491.629   -1135.0864    29.215242    29.215242    29.215242   -6583.2336 
    3980    298.42471    78.961841   -6642.9221   -6563.9602    24937.946   -1474.6212   -1271.1003   -1737.1697   -1415.5937    29.215965    29.215965    29.215965   -6586.9128 
    3990    303.74479    80.369509   -6644.3024   -6563.9329     24939.67   -1708.1895   -1541.6415   -1898.7424   -1684.1845    29.216638    29.216638    29.216638   -6590.5228 
    4000    306.24787    81.031814   -6644.9565   -6563.9247    24941.246   -1895.2682   -1872.2876   -1952.2418   -1861.2753    29.217253    29.217253    29.217253   -6593.4285 
    4010    305.76019    80.902775   -6644.8511   -6563.9483    24942.657   -2026.3915   -2178.5906   -1943.2784   -1957.3055    29.217804    29.217804    29.217804   -6595.4951 
    4020    303.63392    80.340174   -6644.3413   -6564.0011    24943.892   -2101.8761   -2352.0972   -1941.4979   -2012.0331    29.218286    29.218286    29.218286   -6596.7247 
    4030    301.65483    79.816515    -6643.889   -6564.0725    24944.944   -2125.4999   -2353.3055   -1960.5418   -2062.6524    29.218697    29.218697    29.218697   -6597.1653 
    4040    300.76643     79.58145   -6643.7344   -6564.1529    24945.811   -2110.5151   -2232.2021   -1992.3006   -2107.0427    29.219035    29.219035    29.219035   -6597.0135 
    4050     300.4712    79.503332   -6643.7415   -6564.2382    24946.492   -2090.2027   -2075.9325   -2052.0436   -2142.6321    29.219301    29.219301    29.219301   -6596.7834 
    4060    299.77868    79.320094   -6643.6469   -6564.3268    24946.991   -2079.8464   -1944.4285   -2121.3818   -2173.7291    29.219496    29.219496    29.219496   -6596.7114 
    4070    298.22535    78.909092   -6643.3243   -6564.4152    24947.306   -2083.4628    -1891.611     -2161.42   -2197.3575    29.219619    29.219619    29.219619   -6596.8566 
    4080    296.28253    78.395029   -6642.8913   -6564.4962    24947.439   -2102.4643   -1957.1982   -2171.1677    -2179.027    29.219671    29.219671    29.219671   -6597.2336 
    4090     294.7463     77.98855    -6642.549   -6564.5605    24947.386   -2116.3175    -2090.198   -2166.4258   -2092.3286    29.219651    29.219651    29.219651   -6597.5135 
    4100    294.10322    77.818392   -6642.4186   -6564.6002    24947.148   -2092.4892   -2168.2824   -2158.9681    -1950.217    29.219557    29.219557    29.219557   -6597.1819 
    4110    294.47171    77.915894   -6642.5273   -6564.6114    24946.725   -2033.3349   -2154.2243   -2151.6041   -1794.1762    29.219393    29.219393    29.219393   -6596.2715 
    4120     295.6472    78.226925   -6642.8211   -6564.5941    24946.123   -1978.1743   -2114.5718    -2139.485   -1680.4662    29.219157    29.219157    29.219157   -6595.3946 
    4130    297.17874    78.632163    -6643.184   -6564.5518    24945.346   -1936.2704   -2081.3474   -2110.8387   -1616.6252    29.218854    29.218854    29.218854   -6594.6989 
    4140    298.64833    79.021008   -6643.5103   -6564.4893    24944.398   -1905.8297   -2042.6854   -2062.2441   -1612.5597    29.218484    29.218484    29.218484   -6594.1613 
    4150    299.94919    79.365212   -6643.7769   -6564.4117    24943.281   -1846.8037    -1950.361   -1958.5139   -1631.5362    29.218048    29.218048    29.218048   -6593.1635 
    4160    300.86754    79.608202   -6643.9316   -6564.3234    24942.001   -1754.1155    -1815.122   -1814.3664   -1632.8581    29.217548    29.217548    29.217548   -6591.6307 
    4170    300.80514    79.591692   -6643.8182   -6564.2265    24940.565   -1655.7187   -1685.0414   -1683.4432   -1598.6713    29.216987    29.216987    29.216987   -6590.0005 
    4180    299.55876    79.261905   -6643.3803   -6564.1184    24938.982   -1545.1471   -1561.0421   -1572.0614   -1502.3379    29.216369    29.216369    29.216369   -6588.1696 
    4190    297.81244    78.799837   -6642.7898   -6563.9899    24937.261   -1433.3578   -1455.0786   -1473.8501   -1371.1447    29.215697    29.215697    29.215697   -6586.2996 
    4200    296.66071    78.495093   -6642.3226   -6563.8275    24935.412   -1343.7287   -1411.8278   -1396.7048   -1222.6535    29.214975    29.214975    29.214975   -6584.7406 
    4210     297.1422    78.622495   -6642.2411   -6563.6186    24933.443   -1230.6383   -1366.7827   -1332.8951   -992.23692    29.214206    29.214206    29.214206   -6582.7701 
    4220    299.55673    79.261368    -6642.619   -6563.3576    24931.365   -1061.5696   -1233.5837   -1263.4859   -687.63911    29.213394    29.213394    29.213394   -6579.8767 
    4230    302.83842    80.129687   -6643.1808   -6563.0511     24929.19   -874.37531   -1030.5574   -1169.0552   -423.51334    29.212545    29.212545    29.212545    -6576.656 
    4240    305.18592    80.750826   -6643.4669   -6562.7161    24926.937   -698.87148   -818.48006   -1005.5655   -272.56889    29.211665    29.211665    29.211665   -6573.5893 
    4250    305.43872    80.817715   -6643.1897    -6562.372     24924.62   -496.95795   -589.65085    -718.3314   -182.89159     29.21076     29.21076     29.21076   -6570.1031 
    4260    303.58794    80.328008   -6642.3583   -6562.0303    24922.258   -240.67566   -306.30265   -335.72287   -80.001462    29.209837    29.209837    29.209837   -6565.7741 
    4270     300.7061    79.565485   -6641.2562   -6561.6907    24919.871    16.563979   -12.103292    29.788877    32.006351    29.208904    29.208904    29.208904    -6561.433 
    4280    298.75251    79.048574   -6640.3943   -6561.3457    24917.484    211.08984    210.13359    280.65014    142.48581    29.207971    29.207971    29.207971   -6558.0628 
    4290    299.39125    79.217583   -6640.2086    -6560.991    24915.112    337.91167    320.24959    394.17206    299.31335    29.207044    29.207044    29.207044   -6555.7362 
    4300    302.43106    80.021902   -6640.6558   -6560.6339    24912.767    437.28751      352.172    446.33715    513.35337    29.206128    29.206128    29.206128   -6553.8344 
    4310    305.87621    80.933475   -6641.2284    -6560.295    24910.458    566.10132    398.86736     553.9779    745.45871    29.205226    29.205226    29.205226   -6551.4933 
    4320    307.41385    81.340328   -6641.3373   -6559.9969    24908.197     741.8307    506.69359    751.25164    967.54686    29.204342    29.204342    29.204342   -6548.4641 
    4330    306.41833    81.076915   -6640.8281   -6559.7512    24905.999    945.34435    679.72535    995.77237    1160.5353    29.203483    29.203483    29.203483   -6545.0557 
    4340    304.65263    80.609719   -6640.1629   -6559.5531    24903.881    1122.2659    886.72745    1211.7212    1268.3491    29.202655    29.202655    29.202655   -6542.1089 
[...]
   23930    302.75433    80.107438   -6640.7549   -6560.6474    24924.975    -236.4628   -257.00302   -142.99402   -309.39136    29.210898    29.210898    29.210898   -6564.3261 
   23940    303.02441      80.1789   -6641.0902   -6560.9113    24926.509   -405.57748   -477.79771   -270.73142    -468.2033    29.211497    29.211497    29.211497   -6567.2212 
   23950    304.34107    80.527283   -6641.7317   -6561.2045    24928.008   -580.14942   -671.21519   -459.10693   -610.12613    29.212083    29.212083    29.212083   -6570.2309 
   23960    305.51799     80.83869   -6642.3718   -6561.5331    24929.456    -758.6663   -820.41665   -721.75393   -733.82833    29.212648    29.212648    29.212648   -6573.3377 
   23970    305.43954    80.817934   -6642.7169   -6561.8989    24930.837   -920.13416   -924.55118    -1006.031    -829.8203    29.213188    29.213188    29.213188   -6576.2168 
   23980    303.80277    80.384851   -6642.6776   -6562.2928    24932.139    -1019.818   -990.30234   -1212.7877   -856.36396    29.213697    29.213697    29.213697   -6578.1626 
   23990    301.24731    79.708688    -6642.402   -6562.6933    24933.352   -1081.1822   -1062.9569   -1331.4006   -849.18915     29.21417     29.21417     29.21417   -6579.5188 
   24000    298.78294    79.056627   -6642.1308   -6563.0742     24934.47   -1132.1514   -1149.9272   -1359.8689   -886.65802    29.214607    29.214607    29.214607   -6580.6937 
   24010     297.2033    78.638662   -6642.0516    -6563.413    24935.488   -1211.9667   -1262.4498   -1340.2974   -1033.1529    29.215005    29.215005    29.215005   -6582.2754 
   24020    297.04539    78.596878   -6642.2947   -6563.6978      24936.4      -1335.4   -1413.5598   -1329.6144   -1263.0259    29.215361    29.215361    29.215361   -6584.4821 
   24030    298.27326    78.921768   -6642.8511   -6563.9293    24937.195   -1448.5655   -1553.8875   -1328.4565   -1463.3524    29.215671    29.215671    29.215671   -6586.4756 
   24040    299.88225    79.347499   -6643.4646   -6564.1171    24937.863   -1521.9323   -1638.4198   -1344.7856   -1582.5915    29.215932    29.215932    29.215932   -6587.8059 
   24050    300.59971    79.537335   -6643.8098   -6564.2725    24938.397    -1574.754   -1672.8613   -1399.6179   -1651.7828    29.216141    29.216141    29.216141    -6588.784 
   24060    300.05551    79.393344    -6643.796   -6564.4027    24938.793   -1610.4081    -1675.994   -1480.0848   -1675.1455    29.216295    29.216295    29.216295   -6589.4696 
   24070    298.97687    79.107939   -6643.6173   -6564.5094    24939.048   -1621.7485   -1652.1206   -1556.0011   -1657.1237    29.216395    29.216395    29.216395   -6589.7531 
   24080    298.48082    78.976686   -6643.5696   -6564.5929     24939.16   -1616.4273   -1612.0865   -1613.5999   -1623.5955    29.216439    29.216439    29.216439   -6589.7538 
   24090    299.19803    79.166458   -6643.8228   -6564.6563    24939.131   -1580.3453   -1555.8864   -1619.1905    -1565.959    29.216427    29.216427    29.216427   -6589.2556 
   24100    300.53288    79.519652   -6644.2269   -6564.7073    24938.963   -1526.6333   -1499.7714   -1596.8658   -1483.2628    29.216361    29.216361    29.216361   -6588.4703 
   24110    300.97998    79.637953   -6644.3919    -6564.754     24938.66   -1471.4103   -1472.9212   -1576.8194   -1364.4902    29.216243    29.216243    29.216243   -6587.6572 
   24120    299.52208    79.252201   -6644.0513   -6564.7991    24938.229   -1410.1025   -1477.8902   -1546.4911   -1205.9262    29.216075    29.216075    29.216075   -6586.7477 
   24130    296.55994    78.468432   -6643.3046   -6564.8362    24937.673   -1338.6927   -1454.7853   -1479.4096   -1081.8831    29.215858    29.215858    29.215858   -6585.6728 
   24140    293.43975    77.642842   -6642.4954   -6564.8525        24937   -1259.4421   -1361.4383   -1353.4615   -1063.4266    29.215595    29.215595    29.215595   -6584.4551 
   24150    291.50983    77.132193   -6641.9676   -6564.8354    24936.216   -1201.7931   -1260.2165   -1197.0349    -1148.128    29.215289    29.215289    29.215289   -6583.5401 
   24160     291.6345    77.165182   -6641.9432    -6564.778    24935.326   -1179.6797   -1200.6195   -1061.9638   -1276.4559    29.214941    29.214941    29.214941   -6583.1378 
   24170    293.84628    77.750407   -6642.4322   -6564.6818    24934.332   -1169.9514   -1181.1394   -958.21323   -1370.5016    29.214553    29.214553    29.214553   -6582.8895 
   24180    297.29871    78.663907   -6643.2212   -6564.5573    24933.235   -1175.0789   -1210.9998    -910.6291   -1403.6079    29.214124    29.214124    29.214124    -6582.844 
   24190    300.64935     79.55047   -6643.9715   -6564.4211    24932.034   -1188.8525   -1261.9353     -926.469   -1378.1533    29.213656    29.213656    29.213656   -6582.9212 
   24200    302.70354       80.094   -6644.3835   -6564.2895     24930.73   -1168.3287   -1254.1561   -946.58623   -1304.2437    29.213146    29.213146    29.213146   -6582.4693 
   24210    302.96694    80.163694   -6644.3365   -6564.1728    24929.323     -1069.61   -1133.2032   -892.88598   -1182.7408    29.212596    29.212596    29.212596   -6580.8156 
   24220    301.95614     79.89624   -6643.9688   -6564.0725    24927.822    -922.0286   -936.97199   -785.50673   -1043.6071     29.21201     29.21201     29.21201   -6578.4181 
   24230    300.74638    79.576145   -6643.5593   -6563.9832    24926.241   -774.89701   -738.21098   -686.97484   -899.50523    29.211393    29.211393    29.211393   -6576.0388 
   24240    299.89267    79.350257    -6643.248   -6563.8977    24924.591   -633.88365    -573.1024    -610.1892   -718.35934    29.210748    29.210748    29.210748   -6573.7588 
   24250    299.19187    79.164828   -6642.9754   -6563.8106    24922.885   -492.83359   -440.46058   -522.77557   -515.26461    29.210082    29.210082    29.210082   -6571.4769 
   24260    298.15393    78.890193   -6642.6072    -6563.717    24921.136   -347.04261   -312.80684   -388.09057   -340.23043    29.209398    29.209398    29.209398   -6569.1151 
   24270    296.56375    78.469438   -6642.0799   -6563.6105    24919.357   -196.08362   -170.90979    -212.2446   -205.09648    29.208703    29.208703    29.208703   -6566.6602 
   24280    295.00208    78.056227   -6641.5378   -6563.4816     24917.56   -42.173252   -8.9755042   -19.851389   -97.692864    29.208001    29.208001    29.208001   -6564.1375 
   24290     294.5047    77.924625   -6641.2452   -6563.3205    24915.759     108.6776     152.2439    191.43008   -17.641181    29.207298    29.207298    29.207298   -6561.6305 
   24300    296.04265    78.331558   -6641.4532   -6563.1216    24913.968    229.10841    265.83931    388.50456    32.981367    29.206598    29.206598    29.206598   -6559.5589 
   24310    299.85002    79.338971   -6642.2275   -6562.8885    24912.197    297.09158    288.63388    523.01771    79.623159    29.205905    29.205905    29.205905   -6558.2691 
   24320    304.90103    80.675446   -6643.3128   -6562.6373    24910.451    338.38116    229.59214    597.92309    187.62824    29.205223    29.205223    29.205223   -6557.3762 
   24330    309.13132    81.794761   -6644.1883   -6562.3936    24908.735    400.77263    158.93244    654.59099    388.79448    29.204553    29.204553    29.204553   -6556.1628 
   24340    310.30121    82.104308   -6644.2863    -6562.182    24907.054    505.34647    170.55923    715.93448     629.5457    29.203896    29.203896    29.203896    -6554.326 
   24350    307.50232    81.363735   -6643.3762   -6562.0125    24905.418     656.0618    319.33866     798.9821    849.86463    29.203256    29.203256    29.203256   -6551.8142 
   24360    302.00028    79.907919   -6641.7807   -6561.8728     24903.84    831.21432    566.84135     911.0015    1015.8001     29.20264     29.20264     29.20264   -6548.9526 
   24370    296.61741    78.483636   -6640.2179   -6561.7343    24902.335    976.55877    840.68489    1000.8117    1088.1797    29.202051    29.202051    29.202051   -6546.5558 
   24380    294.31399    77.874163   -6639.4404   -6561.5662    24900.914    1050.4233     1046.478    1046.8704    1057.9214    29.201496    29.201496    29.201496   -6545.2406 
   24390    296.53828      78.4627   -6639.8111   -6561.3484    24899.585    1060.2281    1102.4028    1101.7706    976.51094    29.200976    29.200976    29.200976   -6544.8713 
   24400    302.36672    80.004879   -6641.0849     -6561.08    24898.349    1045.8759    1026.2475    1193.2343    918.14587    29.200493    29.200493    29.200493   -6544.8267 
   24410    308.82189    81.712889    -6642.494   -6560.7811    24897.205    1037.7955    902.04383    1282.1263    929.21626    29.200046    29.200046    29.200046   -6544.6541 
   24420    312.68556    82.735197   -6643.2189   -6560.4837    24896.152    1042.4758    787.93617    1312.0322    1027.4592    29.199634    29.199634    29.199634   -6544.2847 
   24430     313.1881    82.868167   -6643.0829   -6560.2147     24895.19    1053.3041     730.6287    1243.3702    1185.9133    29.199258    29.199258    29.199258   -6543.8481 
   24440    312.10901    82.582644   -6642.5672   -6559.9846     24894.32    1061.7924    748.74789    1087.4736    1349.1558    29.198918    29.198918    29.198918   -6543.4867 
   24450    311.58886    82.445016   -6642.2377   -6559.7926    24893.544    1091.2476    820.90625    959.78394    1493.0527    29.198614    29.198614    29.198614   -6542.8376 
   24460    312.48076    82.681009   -6642.3204   -6559.6394    24892.864    1172.7178    947.05348    976.76311    1594.3368    29.198348    29.198348    29.198348    -6541.419 
   24470    314.00442    83.084162   -6642.6183   -6559.5341    24892.286    1283.4121    1103.9184    1139.9683    1606.3496    29.198123    29.198123    29.198123   -6539.5944 
   24480    314.42071     83.19431   -6642.6871   -6559.4928    24891.822    1397.7078    1283.9836    1363.2401    1545.8998    29.197941    29.197941    29.197941   -6537.7777 
   24490    312.35289    82.647175   -6642.1768   -6559.5296     24891.48    1521.1527    1518.1902     1566.179     1479.089    29.197807    29.197807    29.197807   -6535.8969 
   24500     307.7786    81.436837   -6641.0836   -6559.6468    24891.271    1664.3935    1788.4707    1743.7053    1461.0045    29.197726    29.197726    29.197726   -6533.7889 
   24510    302.02816    79.915298   -6639.7465   -6559.8312    24891.209    1817.3499    2044.6841    1872.0875    1535.2782    29.197701    29.197701    29.197701   -6531.5971 
   24520    297.36529    78.681521   -6638.7412   -6560.0597    24891.306     1943.395    2241.3717    1895.3968    1693.4164    29.197739    29.197739    29.197739   -6529.8673 
   24530    295.90333    78.294696   -6638.6063   -6560.3116    24891.573    2001.1405    2318.7855    1808.4676    1876.1685    29.197844    29.197844    29.197844   -6529.2217 
   24540    298.07732    78.869922   -6639.4498   -6560.5799    24892.015    1968.3342    2237.8059    1666.0786    2001.1182    29.198017    29.198017    29.198017   -6529.9991 
   24550    302.07069    79.926551   -6640.8005    -6560.874    24892.629    1852.3345    2014.9704    1522.6041    2019.4289    29.198257    29.198257    29.198257   -6532.0947 
   24560    305.04637    80.713902   -6641.9245   -6561.2106    24893.405    1694.7272    1707.4666    1420.6273    1956.0877     29.19856     29.19856     29.19856   -6534.8792 
   24570    305.19593    80.753476   -6642.3511   -6561.5977    24894.331    1528.8082    1381.0156    1359.1342    1846.2749    29.198922    29.198922    29.198922   -6537.8433 
   24580    302.83845    80.129695    -6642.153   -6562.0233    24895.391    1378.0448    1129.2036    1316.6513    1688.2795    29.199336    29.199336    29.199336   -6540.6106 
   24590    299.96927    79.370523   -6641.8302   -6562.4597    24896.572    1250.9231    994.99138    1288.8272    1468.9507    29.199798    29.199798    29.199798   -6543.0213 
   24600    298.72228    79.040577   -6641.9198   -6562.8792    24897.864    1128.6319    947.60467    1254.9618    1183.3292    29.200303    29.200303    29.200303   -6545.3402 
   24610    300.06103    79.394803   -6642.6631   -6563.2683    24899.255    989.89804    911.75872    1187.7928    870.14256    29.200847    29.200847    29.200847   -6547.8844 
   24620    303.09063    80.196423   -6643.8267   -6563.6302    24900.734    824.53587    808.23526     1055.486     609.8864    29.201425    29.201425    29.201425   -6550.8155 
   24630    305.41733    80.812056    -6644.789   -6563.9769    24902.285     672.1689    652.45149    872.51607    491.53915    29.202032    29.202032    29.202032   -6553.5295 
   24640    304.74481    80.634111   -6644.9488   -6564.3147    24903.897    569.98823    494.74031    671.63711    543.58728    29.202662    29.202662    29.202662   -6555.4549 
   24650    300.58673    79.533902   -6644.1683   -6564.6344    24905.559    463.99785    307.34889    440.25188    644.39277    29.203311    29.203311    29.203311   -6557.4216 
   24660    294.76731    77.994109   -6642.9083   -6564.9142    24907.263     361.3459     153.2264    236.41999    694.39131    29.203977    29.203977    29.203977   -6559.2967 
   24670    290.27524    76.805527    -6641.938   -6565.1324    24908.999    298.07959    112.01929    112.69997     669.5195    29.204656    29.204656    29.204656   -6560.4982 
   24680    289.23997    76.531598   -6641.8116     -6565.28    24910.762    223.72318    130.03903    16.867899    524.26261    29.205345    29.205345    29.205345   -6561.8015 
   24690     291.7842    77.204792   -6642.5677   -6565.3629    24912.545    59.020878    92.714764   -136.93137    221.27924    29.206042    29.206042    29.206042   -6564.4452 
   24700    296.33419    78.408699   -6643.8089   -6565.4002    24914.334   -177.18907    -45.98223   -328.24651   -157.33848    29.206741    29.206741    29.206741   -6568.1555 
   24710    300.39724    79.483762   -6644.9003   -6565.4165    24916.107   -393.75004   -259.89516   -466.26311   -455.09184    29.207434    29.207434    29.207434   -6571.5399 
   24720    301.93928    79.891779   -6645.3244   -6565.4326    24917.848   -544.83245   -509.19708   -512.86192   -612.43834    29.208114    29.208114    29.208114   -6573.9061 
   24730    300.76041    79.579855   -6645.0365   -6565.4566    24919.542   -650.04268   -757.50959   -506.43018   -686.18826    29.208775    29.208775    29.208775   -6575.5671 
   24740    298.35221    78.942656   -6644.4257   -6565.4831    24921.179   -739.51953   -960.48173   -504.85942   -753.21745    29.209415    29.209415    29.209415    -6576.986 
   24750    296.56157    78.468863   -6643.9696   -6565.5007    24922.752   -812.90015   -1079.3821   -538.68009   -820.63821     29.21003     29.21003     29.21003   -6578.1459 
   24760    296.24834    78.385983   -6643.8871   -6565.5011    24924.255    -862.4379   -1114.9576   -620.09231   -852.26382    29.210617    29.210617    29.210617   -6578.9176 
   24770    296.94478    78.570259   -6644.0526   -6565.4824    24925.683   -893.31184   -1097.2228   -746.87105   -835.84164    29.211175    29.211175    29.211175     -6579.38 
   24780     297.6339    78.752596   -6644.1997   -6565.4471    24927.033   -920.51209   -1058.0646   -909.96272   -793.50893    29.211702    29.211702    29.211702   -6579.7686 
   24790    297.53268    78.725813   -6644.1237   -6565.3979    24928.302   -960.46906   -1026.5911   -1076.8513   -777.96473    29.212198    29.212198    29.212198   -6580.3419 
   24800    296.46007    78.442004   -6643.7755   -6565.3335    24929.488    -997.8164   -992.55604   -1178.9223   -821.97088    29.212661    29.212661    29.212661   -6580.8593 
   24810      295.032    78.064144   -6643.3117   -6565.2475    24930.586   -1022.9703   -971.52362   -1187.0077   -910.37957     29.21309     29.21309     29.21309   -6581.1654 
   24820    294.24549    77.856037   -6642.9875   -6565.1314    24931.595   -1057.6368   -1010.7644   -1149.0252   -1013.1206    29.213484    29.213484    29.213484   -6581.5894 
   24830    294.73509    77.985583   -6642.9641   -6564.9785    24932.512   -1111.6156   -1110.9225    -1127.399   -1096.5254    29.213842    29.213842    29.213842   -6582.2771 
   24840    296.48421    78.448392   -6643.2356   -6564.7872    24933.331   -1168.6204    -1218.445   -1155.9868   -1131.4294    29.214162    29.214162    29.214162   -6582.9735 
   24850    298.97235    79.106744   -6643.6695   -6564.5628    24934.048   -1184.4781   -1261.1671   -1188.2065   -1104.0607    29.214442    29.214442    29.214442   -6582.9963 
   24860    301.25639    79.711091   -6644.0265   -6564.3154    24934.661   -1158.9777   -1253.3582   -1163.1582   -1060.4168    29.214682    29.214682    29.214682   -6582.3526 
   24870    302.19622    79.959766   -6644.0164   -6564.0566    24935.173   -1142.2135   -1262.3002   -1121.0736   -1043.2666    29.214881    29.214881    29.214881   -6581.8333 
   24880    301.32058    79.728075   -6643.5208   -6563.7927    24935.584   -1158.7448   -1308.1256   -1106.2468   -1061.8621    29.215042    29.215042    29.215042   -6581.8269 
   24890    299.38615    79.216234   -6642.7378   -6563.5216    24935.894   -1187.6591   -1357.9954   -1087.3038   -1117.6781    29.215163    29.215163    29.215163    -6582.006 
   24900    297.94854    78.835848   -6642.0706   -6563.2348    24936.099   -1205.0706   -1390.8476   -1041.3606   -1183.0037    29.215243    29.215243    29.215243   -6581.9903 
   24910    298.45756    78.970533   -6641.8961   -6562.9256    24936.199   -1217.4022   -1413.1532   -1016.8808   -1222.1725    29.215282    29.215282    29.215282   -6581.8732 
   24920    301.11456    79.673562   -6642.2705   -6562.5969    24936.192   -1217.7583   -1407.6872   -1041.9808   -1203.6068    29.215279    29.215279    29.215279     -6581.55 
   24930    304.57303    80.588657   -6642.8531   -6562.2645    24936.078    -1166.855   -1333.5135   -1069.0878   -1097.9638    29.215235    29.215235    29.215235   -6580.4253 
   24940    306.83375    81.186833   -6643.1379   -6561.9511    24935.862   -1052.9397   -1182.3918   -1047.9525   -928.47483    29.215151    29.215151    29.215151   -6578.3387 
   24950    306.52274    81.104542    -6642.779   -6561.6745    24935.554    -913.3172   -1000.2833   -973.40099   -766.26728     29.21503     29.21503     29.21503   -6575.8889 
   24960    303.73319     80.36644   -6641.8038   -6561.4374    24935.165   -802.70472   -859.01768   -869.85977    -679.2367    29.214879    29.214879    29.214879   -6573.9301 
   24970    300.09427    79.403598   -6640.6311   -6561.2275    24934.706   -715.42358   -755.17564   -731.34168   -659.75341    29.214699    29.214699    29.214699   -6572.3617 
   24980      297.744    78.781726   -6639.8083   -6561.0266    24934.183   -636.55214   -683.26185   -574.09078   -652.30379    29.214495    29.214495    29.214495   -6570.9331 
   24990    297.98737    78.846122   -6639.6685   -6560.8224    24933.605   -608.55561   -704.84217   -478.41704   -642.40761    29.214269    29.214269    29.214269   -6570.2929 
   25000    300.66209     79.55384   -6640.1693   -6560.6155    24932.972   -630.90028   -799.78126   -482.05208   -610.86751    29.214022    29.214022    29.214022   -6570.4335 
Loop time of 356.839 on 1 procs for 25000 steps with 2048 atoms

Pair  time (%) = 342.56 (95.9983)
Neigh time (%) = 9.44496 (2.64684)
Comm  time (%) = 1.29315 (0.362391)
Outpt time (%) = 0.0949481 (0.0266081)
Other time (%) = 3.44646 (0.965829)

Nlocal:    2048 ave 2048 max 2048 min
Histogram: 1 0 0 0 0 0 0 0 0 0
Nghost:    5765 ave 5765 max 5765 min
Histogram: 1 0 0 0 0 0 0 0 0 0
Neighs:    177028 ave 177028 max 177028 min
Histogram: 1 0 0 0 0 0 0 0 0 0

Total # of neighbors = 177028
Ave neighs/atom = 86.4395
Neighbor list builds = 1250
Dangerous builds = 0
unfix           1

