LAMMPS (6 Apr 2015)
Reading data file ...
  orthogonal box = (-0.0410052 -0.0410052 -0.0410052) to (29.153 29.153 29.153)
  1 by 1 by 1 MPI processor grid
  reading atoms ...
  2048 atoms
  reading velocities ...
  2048 velocities
Reading potential file CuZr_mm.eam.fs with DATE: 2007-06-11
Neighbor list info ...
  1 neighbor list requests
  update every 20 steps, delay 0 steps, check no
  master list distance cutoff = 7.9
Setting up run ...
Memory usage per processor = 3.64212 Mbytes
Step Temp KinEng PotEng TotEng Volume Press Pxx Pyy Pzz Lx Ly Lz Enthalpy 
       0          300    79.378655    -6641.179   -6561.8004     24881.77      2049.49    1974.2184    2033.3441    2140.9075     29.19401     29.19401     29.19401   -6529.9718 
      10    309.40518    81.867223   -6643.6504   -6561.7832    24881.854    1868.1003    1840.2611    1789.9514    1974.0884    29.194043    29.194043    29.194043   -6532.7715 
      20    316.64194    83.782038   -6645.5431    -6561.761    24882.097    1691.3098    1625.8909    1617.5459    1830.4925    29.194138    29.194138    29.194138   -6535.4947 
      30    319.56441    84.555309   -6646.3276   -6561.7723    24882.484    1545.0001    1402.6619    1521.0816    1711.2568     29.19429     29.19429     29.19429   -6537.7778 
      40    318.18793      84.1911   -6646.0258   -6561.8347    24883.002    1455.8799    1246.6981    1501.5728    1619.3689    29.194492    29.194492    29.194492   -6539.2238 
      50    314.00395    83.084038   -6645.0272   -6561.9432    24883.645    1458.5661     1226.379    1558.6225    1590.6968    29.194743    29.194743    29.194743     -6539.29 
      60    308.53343    81.636563   -6643.7136   -6562.0771    24884.412    1544.6283    1341.7883    1642.3148    1649.7818    29.195043    29.195043    29.195043   -6538.0865 
      70    302.77916    80.114009   -6642.3229   -6562.2089     24885.31    1630.3366    1461.8646    1680.3637    1748.7816    29.195395    29.195395    29.195395   -6536.8862 
      80    297.48641     78.71357   -6641.0232   -6562.3096    24886.346     1665.872    1478.9653    1683.8375    1834.8132      29.1958      29.1958      29.1958   -6536.4339 
      90    293.68042    77.706523   -6640.0587   -6562.3522    24887.523    1685.5958    1445.7931    1718.6066    1892.3876     29.19626     29.19626     29.19626   -6536.1689 
     100    292.61013     77.42333   -6639.7375   -6562.3142    24888.843    1701.2552    1431.4833    1776.6096    1895.6728    29.196777    29.196777    29.196777   -6535.8862 
     110    294.95233    78.043065   -6640.2238   -6562.1807    24890.308    1660.0957    1401.1645    1768.9565    1810.1661    29.197349    29.197349    29.197349   -6536.3906 
     120    300.37709    79.478431   -6641.4258   -6561.9473    24891.913    1524.9022    1303.3679    1637.7263    1633.6123    29.197977    29.197977    29.197977    -6538.256 
     130    307.48505    81.359166   -6642.9828   -6561.6237    24893.648    1321.2545    1160.7936    1391.7132    1411.2566    29.198655    29.198655    29.198655   -6541.0948 
     140    314.01623    83.087287   -6644.3232   -6561.2359    24895.494    1109.0201    1030.7971     1071.123    1225.1403    29.199377    29.199377    29.199377   -6544.0034 
     150    317.47484     84.00242   -6644.8235   -6560.8211    24897.436    936.21795    917.16571    755.00091    1136.4872    29.200136    29.200136    29.200136   -6546.2725 
     160    316.34598    83.703728   -6644.1146   -6560.4109    24899.457    820.03489    796.58511    552.34677    1111.1728    29.200926    29.200926    29.200926   -6547.6667 
     170    311.32408    82.374955   -6642.3905   -6560.0156    24901.549    763.58245    681.48188    547.60893    1061.6566    29.201744    29.201744    29.201744   -6548.1477 
     180    305.01013    80.704314   -6640.3267   -6559.6224    24903.707    752.55087    601.98537    706.74757    948.91967    29.202587    29.202587    29.202587    -6547.925 
     190    300.62181    79.543183    -6638.753   -6559.2099    24905.929    747.46951    566.17485    869.07986    807.15383    29.203456    29.203456    29.203456   -6547.5904 
     200    300.59091    79.535006   -6638.3015   -6558.7665    24908.215     699.5029    538.52395    877.23922    682.74554    29.204349    29.204349    29.204349   -6547.8917 
     210    305.08781    80.724866   -6639.0301   -6558.3052     24910.56    593.76114    466.46324    726.40762    588.41256    29.205266    29.205266    29.205266   -6549.0734 
     220    311.57579    82.441556   -6640.3059   -6557.8644    24912.955    470.31065    326.79971    559.72821    524.40403    29.206202    29.206202    29.206202   -6550.5513 
     230    316.50189     83.74498   -6641.2352   -6557.4903    24915.392    372.57765    154.60811    459.43056    503.69427    29.207154    29.207154    29.207154   -6551.6963 
     240    317.76374     84.07886   -6641.2892   -6557.2104     24917.86    324.13569    17.322442    419.14398    535.94064    29.208119    29.208119    29.208119   -6552.1692 
     250    315.49287    83.477999   -6640.4988   -6557.0208    24920.357    302.10207   -54.669584    410.07633    550.89946    29.209094    29.209094    29.209094   -6552.3218 
     260    311.49834    82.421065   -6639.3157   -6556.8946     24922.88    278.26216   -48.335543    396.49199    486.63003     29.21008     29.21008     29.21008   -6552.5661 
     270    308.22473    81.554882    -6638.355   -6556.8001    24925.427    196.92847   -36.888196    299.59257    328.08104    29.211075    29.211075    29.211075   -6553.7364 
     280     307.2793    81.304726   -6638.0189   -6556.7142    24927.991    10.129239   -127.75032    73.466619    84.671415    29.212076    29.212076    29.212076   -6556.5566 
     290     308.7534    81.694766   -6638.3233   -6556.6285    24930.555   -235.68529   -322.36273   -200.83255    -183.8606    29.213078    29.213078    29.213078   -6560.2959 
     300    311.35532    82.383221   -6638.9306   -6556.5474    24933.099   -461.13845   -544.47631   -447.27154   -391.66751    29.214072    29.214072    29.214072   -6563.7236 
     310    313.26382    82.888202   -6639.3688   -6556.4806    24935.605   -624.87792   -720.38893   -659.52714    -494.7177     29.21505     29.21505     29.21505    -6566.206 
     320     313.5907    82.974692   -6639.4099   -6556.4352    24938.059   -740.28979   -843.90568   -834.39596   -542.56772    29.216009    29.216009    29.216009   -6567.9579 
     330    313.11721    82.849409   -6639.2601   -6556.4107     24940.45   -887.17612   -993.80747   -999.79728   -667.92361    29.216942    29.216942    29.216942    -6570.221 
     340    313.68644    83.000027   -6639.4042   -6556.4042    24942.765   -1111.7176   -1197.6825   -1195.5024   -941.96801    29.217846    29.217846    29.217846   -6573.7115 
     350     316.3472    83.704052   -6640.1225   -6556.4185    24944.986   -1346.1014   -1387.3516   -1382.0457   -1268.9068    29.218713    29.218713    29.218713   -6577.3765 
     360    319.89208    84.642009   -6641.1091    -6556.467    24947.093   -1481.6632   -1479.0063   -1469.1684    -1496.815    29.219536    29.219536    29.219536   -6579.5377 
     370    321.70303    85.121179   -6641.6893   -6556.5681    24949.075   -1489.7306    -1464.859   -1429.0595   -1575.2732     29.22031     29.22031     29.22031   -6579.7662 
     380    319.63915    84.575087   -6641.3052   -6556.7301    24950.931   -1419.8908   -1414.9507   -1323.6572   -1521.0646    29.221034    29.221034    29.221034   -6578.8422 
     390    313.62239    82.983078    -6639.922    -6556.939    24952.666   -1331.1438   -1375.4318   -1241.1269   -1376.8727    29.221712    29.221712    29.221712   -6577.6705 
     400    306.19427    81.017631   -6638.1784   -6557.1608    24954.288   -1267.5007   -1344.5691   -1241.7323   -1216.2006    29.222345    29.222345    29.222345   -6576.9024 
     410    300.89746    79.616118   -6636.9745   -6557.3584    24955.802   -1264.8982   -1329.9784   -1333.9703   -1130.7459    29.222936    29.222936    29.222936   -6577.0607 
     420    299.86278    79.342348   -6636.8512   -6557.5088    24957.207   -1344.7523    -1381.363   -1460.2789   -1192.6149    29.223484    29.223484    29.223484   -6578.4561 
     430    302.49608    80.039107   -6637.6486   -6557.6095    24958.498   -1496.8224   -1541.7335   -1542.8006   -1405.9329    29.223988    29.223988    29.223988   -6580.9268 
     440    306.14213    81.003835   -6638.6772   -6557.6734    24959.661   -1652.5691   -1767.0287   -1532.0282   -1658.6505    29.224442    29.224442    29.224442   -6583.4181 
     450    307.83486    81.451723   -6639.1691   -6557.7174    24960.683   -1746.6681   -1999.4309   -1436.6856   -1803.8877    29.224841    29.224841    29.224841   -6584.9291 
     460    306.19397    81.017553   -6638.7667   -6557.7491    24961.558    -1800.441   -2201.9166   -1362.5241   -1836.8823    29.225182    29.225182    29.225182   -6585.7996 
     470    302.61213    80.069812   -6637.8304   -6557.7606    24962.278    -1857.668   -2310.5387   -1422.5218   -1839.9436    29.225463    29.225463    29.225463   -6586.7034 
     480    300.44077     79.49528   -6637.2296   -6557.7344    24962.841    -1938.571   -2298.5442   -1636.3481   -1880.8206    29.225683    29.225683    29.225683   -6587.9384 
     490    302.75806    80.108425    -6637.767   -6557.6585    24963.237   -2063.2879   -2235.5992    -1937.841   -2016.4236    29.225838    29.225838    29.225838   -6589.8063 
     500    310.21969    82.082739   -6639.6225   -6557.5397    24963.458   -2227.0555   -2217.0367   -2231.0058    -2233.124    29.225924    29.225924    29.225924   -6592.2394 
     510    320.08299    84.692523   -6642.1026     -6557.41    24963.489   -2377.1515   -2284.7611   -2414.9593   -2431.7342    29.225936    29.225936    29.225936   -6594.4484 
     520    327.52514    86.661684   -6643.9828   -6557.3211    24963.317   -2461.8634   -2415.5383   -2426.8725   -2543.1794    29.225869    29.225869    29.225869   -6595.6791 
     530    328.57685     86.93996    -6644.261   -6557.3211    24962.937   -2443.0948   -2535.2677   -2272.5324   -2521.4843     29.22572     29.22572     29.22572   -6595.3861 
     540    322.32886    85.286771   -6642.7137   -6557.4269    24962.349   -2272.3631   -2526.1711   -1993.3769   -2297.5415    29.225491    29.225491    29.225491    -6592.831 
     550    311.35938    82.384297    -6639.998   -6557.6137    24961.568   -2000.5045   -2349.4757   -1703.8773   -1948.1606    29.225186    29.225186    29.225186   -6588.7811 
     560    300.30808    79.460171   -6637.2893   -6557.8291    24960.617   -1736.0621   -2046.6072   -1518.6033   -1642.9757    29.224815    29.224815    29.224815   -6584.8755 
     570    293.38008    77.627053   -6635.6471   -6558.0201    24959.517   -1546.8763   -1712.0453   -1454.8346   -1473.7489    29.224386    29.224386    29.224386   -6582.1181 
     580    292.61454    77.424494   -6635.5765    -6558.152    24958.285   -1481.0989   -1508.6308   -1486.6455   -1448.0205    29.223905    29.223905    29.223905   -6581.2242 
     590    297.50012    78.717199    -6636.932   -6558.2148    24956.926   -1507.2658   -1508.2418   -1546.2522   -1467.3035    29.223374    29.223374    29.223374   -6581.6934 
     600    305.42369    80.813739    -6639.035   -6558.2213    24955.438    -1556.142   -1661.1865   -1572.5983   -1434.6412    29.222794    29.222794    29.222794   -6582.4597 
     610    312.98904    82.815497   -6641.0172   -6558.2017    24953.818   -1591.2496   -1865.9698   -1564.4723   -1343.3068    29.222161    29.222161    29.222161   -6582.9853 
     620    317.54785    84.021738   -6642.2147   -6558.1929    24952.062   -1619.1178   -2034.5348   -1570.1733   -1252.6453    29.221476    29.221476    29.221476   -6583.4089 
     630    318.27132    84.213163   -6642.4377   -6558.2245    24950.169   -1594.7695   -2045.8361    -1568.604   -1169.8683    29.220737    29.220737    29.220737   -6583.0593 
     640    315.99419    83.610645   -6641.9192   -6558.3086    24948.141   -1465.2066   -1815.1024   -1490.4217   -1090.0957    29.219945    29.219945    29.219945   -6581.1239 
     650    312.22191    82.612517   -6641.0527   -6558.4401    24945.989   -1280.2982   -1437.3986   -1343.2311    -1060.265    29.219105    29.219105    29.219105   -6578.3745 
     660    308.30791     81.57689   -6640.1805   -6558.6036    24943.728   -1092.3989   -1075.9973   -1133.6192   -1067.5802    29.218222    29.218222    29.218222   -6575.6108 
     670    304.93889    80.685464   -6639.4648   -6558.7793    24941.374   -930.43709   -859.47858   -874.13437   -1057.6983    29.217303    29.217303    29.217303   -6573.2636 
     680    302.47846    80.034445   -6638.9827   -6558.9483     24938.94   -841.92301   -835.57231   -672.65521   -1017.5415    29.216353    29.216353    29.216353   -6572.0533 
     690    301.50793    79.777645    -6638.873   -6559.0954    24936.435   -801.86448    -898.1829   -590.70299   -916.70754    29.215374    29.215374    29.215374   -6571.5757 
     700    302.64428    80.078319   -6639.2912   -6559.2129    24933.862   -767.87656   -951.31895   -608.38137   -743.92935    29.214369    29.214369    29.214369    -6571.163 
     710    306.05768    80.981489   -6640.2854   -6559.3039    24931.223   -710.21134   -943.74465    -654.2702   -532.61917    29.213339    29.213339    29.213339   -6570.3554 
     720    310.75695    82.224895   -6641.6084   -6559.3835    24928.526   -599.61221   -845.06374   -632.97323   -320.79967    29.212285    29.212285    29.212285    -6568.713 
     730    314.95499    83.335678   -6642.8105   -6559.4748    24925.777   -471.09468   -700.64098   -542.42119   -170.22185    29.211211    29.211211    29.211211   -6566.8039 
     740    317.21841    83.934569   -6643.5362   -6559.6016    24922.989   -341.69836     -527.637   -423.98193   -73.476143    29.210122    29.210122    29.210122    -6564.917 
     750    316.64393    83.782565   -6643.5605   -6559.7779    24920.172   -182.68675   -316.98707    -256.3004    25.227218    29.209022    29.209022    29.209022   -6562.6194 
     760    313.19222    82.869257   -6642.8707   -6560.0014    24917.341     34.85594    -36.94887   -5.4009613    146.91765    29.207916    29.207916    29.207916   -6559.4593 
     770    307.87699    81.462872   -6641.7152   -6560.2523    24914.514    295.57699    298.90544    306.04324    281.78229    29.206811    29.206811    29.206811    -6555.656 
     780    302.25695    79.975833   -6640.4761   -6560.5003    24911.712    555.02894    611.39271    627.92201    425.77212    29.205716    29.205716    29.205716   -6551.8703 
     790    297.78344    78.792164   -6639.5069   -6560.7147    24908.957    778.07242     827.0717    914.77526     592.3703    29.204639    29.204639    29.204639   -6548.6181 
     800    295.38183    78.156708   -6639.0293   -6560.8726    24906.268    957.32294    923.29362    1143.0381    805.63707    29.203589    29.203589    29.203589   -6545.9908 
     810    295.62058     78.21988   -6639.1818   -6560.9619    24903.661    1110.8601    975.88549     1296.968    1059.7269     29.20257     29.20257     29.20257   -6543.6951 
     820    298.43346    78.964155   -6639.9464   -6560.9822    24901.149    1227.8777    1038.1889    1370.9494    1274.4947    29.201588    29.201588    29.201588   -6541.8985 
     830    302.77282    80.112331    -6641.056   -6560.9437    24898.741     1295.066     1104.859    1400.1263    1380.2126    29.200646    29.200646    29.200646   -6540.8176 
     840    307.21109    81.286677   -6642.1503   -6560.8636    24896.443    1302.2801    1162.0241    1414.4351     1330.381    29.199748    29.199748    29.199748   -6540.6273 
     850    310.59613    82.182344   -6642.9442   -6560.7619    24894.255    1274.5701     1219.823    1415.7807    1188.1067    29.198892    29.198892    29.198892   -6540.9579 
     860    312.23896    82.617029   -6643.2721    -6560.655    24892.176    1301.2365    1332.1358    1435.8871    1135.6864     29.19808     29.19808     29.19808   -6540.4384 
     870    312.08179    82.575443   -6643.1272   -6560.5518    24890.209    1390.6194    1464.5524    1456.7541    1250.5515     29.19731     29.19731     29.19731   -6538.9482 
     880    310.66551    82.200702   -6642.6527    -6560.452    24888.359     1499.968    1543.6124    1475.9324    1480.3593    29.196587    29.196587    29.196587   -6537.1513 
     890    308.76617    81.698144   -6642.0464   -6560.3482    24886.638    1618.0687    1571.0033     1530.754    1752.4489    29.195914    29.195914    29.195914   -6535.2147 
     900    307.19409     81.28218   -6641.5119   -6560.2297    24885.054     1713.793    1562.9707    1591.6725     1986.736    29.195294    29.195294    29.195294   -6533.6111 
     910    306.67232    81.144121   -6641.2304   -6560.0863    24883.615    1781.6105    1554.0556    1667.2248     2123.551    29.194732    29.194732    29.194732   -6532.4158 
     920    307.49945    81.362975   -6641.2749   -6559.9119    24882.327    1870.0333    1607.0927    1826.4546    2176.5524    29.194228    29.194228    29.194228   -6530.8697 
     930    309.13664    81.796169   -6641.5031    -6559.707    24881.199    2019.4909      1760.15    2070.9661    2227.3565    29.193787    29.193787    29.193787    -6528.345 
     940    310.42826    82.137926   -6641.6148   -6559.4769    24880.242    2194.1929    1962.9865    2322.2024    2297.3898    29.193413    29.193413    29.193413   -6525.4032 
     950    310.38971    82.127725   -6641.3553   -6559.2276    24879.471    2337.2634    2134.6039    2493.6705    2383.5157    29.193111    29.193111    29.193111   -6522.9333 
     960     308.9643     81.75057   -6640.7105   -6558.9599    24878.898    2446.6125    2267.6656    2551.7508    2520.4211    29.192887    29.192887    29.192887   -6520.9685 
     970    307.10567    81.258785   -6639.9271   -6558.6683    24878.532    2531.1415    2398.4087    2521.5351    2673.4807    29.192744    29.192744    29.192744   -6519.3649 
     980    306.34072     81.05638   -6639.4013   -6558.3449    24878.381    2595.9813    2548.6261    2474.8967     2764.421    29.192685    29.192685    29.192685   -6518.0349 
     990    307.96119     81.48515   -6639.4727   -6557.9876     24878.45    2640.5694    2677.1525    2468.1075    2776.4481    29.192712    29.192712    29.192712   -6516.9851 
    1000    311.89302    82.525496   -6640.1332   -6557.6077    24878.743    2663.2574    2733.1852     2492.355     2764.232    29.192826    29.192826    29.192826   -6516.2524 
    1010     316.4047    83.719266   -6640.9506   -6557.2313    24879.261     2674.693    2718.7326    2528.2579    2777.0886    29.193029    29.193029    29.193029   -6515.6976 
    1020    319.13065    84.440539    -6641.331   -6556.8905    24880.006    2699.3493    2663.3636    2594.3386    2840.3457     29.19332     29.19332     29.19332   -6514.9726 
    1030    318.50743    84.275639   -6640.8824   -6556.6068     24880.98    2730.6357    2586.3306    2671.3934     2934.183    29.193702    29.193702    29.193702   -6514.2014 
    1040    314.64733    83.254273   -6639.6346   -6556.3803    24882.186    2756.6612    2537.5359    2723.8471    3008.6006    29.194173    29.194173    29.194173   -6513.5687 
    1050    309.35615     81.85425   -6638.0453   -6556.1911    24883.626     2766.399    2530.3647    2782.6758    2986.1565    29.194736    29.194736    29.194736   -6513.2258 
    1060    305.35261    80.794932    -6636.806   -6556.0111      24885.3     2739.619    2515.0154    2885.9711    2817.8706    29.195391    29.195391    29.195391   -6513.4588 
    1070    304.86576    80.666112   -6636.4855   -6555.8194    24887.206    2647.4747    2438.8741     2972.441     2531.109    29.196136    29.196136    29.196136   -6514.6952 
    1080     308.4618    81.617609   -6637.2301   -6555.6125    24889.337    2489.5003    2288.6441    2961.0551    2218.8015     29.19697     29.19697     29.19697   -6516.9388 
    1090    314.67605    83.261871    -6638.669   -6555.4071    24891.679    2289.7892    2096.0317    2792.4969     1980.839    29.197885    29.197885    29.197885   -6519.8325 
    1100    320.52589    84.809715    -6640.044   -6555.2343    24894.216    2101.5413    1942.4825    2478.4636    1883.6778    29.198877    29.198877    29.198877   -6522.5811 
    1110    323.21235     85.52054   -6640.6447   -6555.1242    24896.932     1957.299    1852.4423    2112.4215    1907.0332    29.199939    29.199939    29.199939   -6524.7089 
    1120    321.74122    85.131285   -6640.2202   -6555.0889    24899.814    1840.0593    1769.2274    1791.4787    1959.4718    29.201066    29.201066    29.201066   -6526.4921 
    1130    317.10865    83.905526   -6639.0222   -6555.1167    24902.854    1720.8701    1626.3553     1565.873    1970.3821    29.202254    29.202254    29.202254   -6528.3689 
    1140    311.80418    82.501987   -6637.6813   -6555.1793    24906.039    1572.6747    1410.7353    1414.4687    1892.8201    29.203499    29.203499    29.203499   -6530.7319 
    1150    308.57976    81.648822   -6636.8972   -6555.2484    24909.359     1371.844    1171.8962    1256.1017    1687.5342    29.204796    29.204796    29.204796   -6533.9201 
    1160    308.71161    81.683709    -6636.992   -6555.3082    24912.795    1132.1923    960.86428    1058.7867    1376.9258    29.206139    29.206139    29.206139   -6537.7034 
    1170     311.2884    82.365516   -6637.7256     -6555.36    24916.328    870.57742    749.37265    838.36633    1023.9933     29.20752     29.20752     29.20752   -6541.8212 
    1180    314.02641    83.089981   -6638.5065   -6555.4165    24919.936    606.30867    501.85333    612.29773    704.77494     29.20893     29.20893     29.20893   -6545.9861 
    1190    314.83946    83.305109   -6638.7959   -6555.4908    24923.596    360.32471    219.30622    392.38638    469.28155    29.210359    29.210359    29.210359   -6549.8856 
    1200    313.30526    82.899166   -6638.4851   -6555.5859    24927.287    132.72253   -90.050779     200.4452    287.77316    29.211801    29.211801    29.211801    -6553.521 
    1210    310.96624    82.280272   -6637.9738   -6555.6935     24930.99   -90.735209    -388.6122    39.499828    76.906743    29.213248    29.213248    29.213248   -6557.1055 
    1220    310.22103    82.083094   -6637.8857   -6555.8026    24934.685   -346.79749   -673.61892   -168.63563   -198.13793    29.214691    29.214691    29.214691   -6561.1998 
    1230    312.48274    82.681532   -6638.5923   -6555.9108    24938.351   -673.71753   -967.00717   -520.01229   -534.13313    29.216123    29.216123    29.216123   -6566.3974 
    1240    317.10828    83.905429   -6639.9363   -6556.0309    24941.959   -1052.2149   -1242.2848   -995.91887   -918.44115    29.217532    29.217532    29.217532   -6572.4113 
    1250     321.6157    85.098072   -6641.2851    -6556.187    24945.479   -1396.1011   -1453.8719   -1443.8657   -1290.5656    29.218906    29.218906    29.218906    -6577.924 
    1260    323.26128    85.533485   -6641.9344   -6556.4009     24948.88   -1640.2534   -1618.7601   -1735.1173   -1566.8829    29.220234    29.220234    29.220234   -6581.9427 
    1270     320.8903    84.906135   -6641.5816   -6556.6755    24952.143   -1810.7616   -1811.6703   -1896.1001   -1724.5144    29.221507    29.221507    29.221507   -6584.8761 
    1280    315.46063    83.469468    -6640.457   -6556.9876    24955.251   -1931.6355   -2027.6574   -1984.8441   -1782.4049    29.222721    29.222721    29.222721   -6587.0744 
    1290    309.47446    81.885555   -6639.1825   -6557.2969    24958.195   -2004.2764   -2187.8393   -2017.5174   -1807.4724     29.22387     29.22387     29.22387   -6588.5189 
    1300    305.69772    80.886247    -6638.452   -6557.5657    24960.969   -2054.6933   -2248.2684   -2049.0098   -1866.8017    29.224952    29.224952    29.224952   -6589.5766 
    1310    305.49794    80.833385   -6638.6084    -6557.775    24963.567   -2128.7636   -2248.2103   -2152.6135   -1985.4671    29.225966    29.225966    29.225966   -6590.9433 
    1320    307.86633    81.460051   -6639.3875   -6557.9275    24965.984   -2249.8824   -2265.9865   -2314.7319   -2168.9289    29.226909    29.226909    29.226909   -6592.9864 
    1330    310.45491    82.144977   -6640.1841   -6558.0391    24968.208   -2385.4995   -2341.2763   -2445.4973   -2369.7249    29.227777    29.227777    29.227777   -6595.2146 
    1340     311.3752    82.388482    -6640.515   -6558.1265    24970.229   -2501.9155    -2483.946   -2493.8669   -2527.9336    29.228566    29.228566    29.228566   -6597.1194 
    1350    309.91297    82.001583   -6640.1989   -6558.1973    24972.036   -2567.6663   -2621.2893   -2476.9717   -2604.7379    29.229271    29.229271    29.229271   -6598.2178 
    1360    306.78025    81.172678   -6639.4213   -6558.2486    24973.625   -2596.5611   -2694.7256   -2469.1559   -2625.8017    29.229891    29.229891    29.229891   -6598.7221 
    1370    303.87933    80.405109   -6638.6776   -6558.2725    24974.992    -2622.328    -2688.384   -2532.2425   -2646.3576    29.230424    29.230424    29.230424   -6599.1498 
    1380    302.93981    80.156515   -6638.4202   -6558.2637    24976.135   -2660.8946   -2626.3543   -2661.0676    -2695.262     29.23087     29.23087     29.23087    -6599.744 
    1390    304.12653    80.470516   -6638.6943   -6558.2238    24977.051   -2721.8407   -2586.3968   -2808.8154   -2770.3098    29.231227    29.231227    29.231227   -6600.6558 
    1400    306.33036    81.053641   -6639.2151   -6558.1614    24977.734   -2800.7526   -2618.3585   -2944.1477   -2839.7515    29.231494    29.231494    29.231494   -6601.8248 
    1410    308.43203    81.609731   -6639.6971   -6558.0874    24978.178   -2891.5358   -2721.4213   -3058.9823   -2894.2039    29.231667    29.231667    29.231667   -6603.1669 
    1420    310.17055    82.069736   -6640.0813   -6558.0115    24978.375   -2981.9859   -2876.5609   -3137.9302   -2931.4665    29.231744    29.231744    29.231744   -6604.5015 
    1430    311.88526    82.523442   -6640.4651   -6557.9416    24978.317   -3064.4603   -3045.1461   -3173.7686   -2974.4663    29.231722    29.231722    29.231722   -6605.7173 
    1440    313.43551    82.933631   -6640.8188   -6557.8852    24977.999   -3111.2167   -3172.0086   -3124.1763    -3037.465    29.231597    29.231597    29.231597   -6606.3892 
    1450    313.78226    83.025379   -6640.8739   -6557.8486    24977.415   -3096.4967   -3220.5415   -2961.4992   -3107.4496    29.231369    29.231369    29.231369   -6606.1219 
    1460    311.96299     82.54401    -6640.376    -6557.832    24976.567   -3013.1893   -3152.7037   -2740.1296   -3146.7348    29.231039    29.231039    29.231039   -6604.8051 
    1470    308.19415    81.546791   -6639.3723   -6557.8255    24975.463   -2868.6273   -2971.7561   -2547.4102   -3086.7156    29.230608    29.230608    29.230608    -6602.543 
    1480    303.83595    80.393631   -6638.2032   -6557.8096    24974.114    -2722.508   -2771.4668   -2459.1507   -2936.9064    29.230082    29.230082    29.230082    -6600.247 
    1490    300.95554    79.631486    -6637.394   -6557.7625    24972.533   -2626.1913   -2624.1273   -2490.3897   -2764.0567    29.229465    29.229465    29.229465    -6598.696 
    1500    301.58353    79.797649   -6637.4675   -6557.6698    24970.727   -2607.7784   -2551.2959   -2625.0902   -2646.9489     29.22876     29.22876     29.22876   -6598.3134 
    1510    306.48647    81.094945   -6638.6271   -6557.5322    24968.699   -2670.3353   -2545.3843   -2839.5514   -2626.0701    29.227969    29.227969    29.227969   -6599.1473 
    1520    314.27231    83.155044   -6640.5257   -6557.3707    24966.444   -2744.5688   -2568.8256   -3013.1511   -2651.7297    29.227089    29.227089    29.227089   -6600.1388 
    1530    321.71916    85.125446   -6642.3491   -6557.2237    24963.955   -2771.3297   -2626.9434   -3020.0959   -2666.9498    29.226118    29.226118    29.226118   -6600.4046 
    1540    325.58117    86.147317   -6643.2805   -6557.1332    24961.231   -2712.3635   -2684.3988   -2837.1626   -2615.5292    29.225055    29.225055    29.225055   -6599.3906 
    1550    324.24655    85.794184   -6642.9182    -6557.124    24958.277   -2519.0542    -2627.294   -2485.9022   -2443.9663    29.223902    29.223902    29.223902   -6596.3652 
    1560     318.4075    84.249197    -6641.441   -6557.1918     24955.11   -2198.0809   -2424.6522   -2020.4069   -2149.1836    29.222666    29.222666    29.222666   -6591.4285 
    1570    310.95019    82.276026   -6639.5827   -6557.3066    24951.758   -1805.1247   -2112.5813   -1561.4718   -1741.3209    29.221357    29.221357    29.221357    -6585.419 
    1580     305.3765    80.801254   -6638.2325   -6557.4312    24948.253   -1410.3995   -1728.2803   -1238.4561    -1264.462    29.219989    29.219989    29.219989   -6579.3932 
    1590    303.75107    80.371171   -6637.9098   -6557.5386    24944.628   -1085.9741   -1316.2059   -1091.8785   -849.83802    29.218574    29.218574    29.218574   -6574.4464 
    1600    305.92487     80.94635   -6638.5675   -6557.6211    24940.911   -836.31116   -918.54743   -1013.7232   -576.66287    29.217122    29.217122    29.217122   -6570.6399 
    1610    309.80346    81.972607   -6639.6612   -6557.6886    24937.125   -602.28869   -578.28108   -831.40399     -397.181    29.215644    29.215644    29.215644   -6567.0629 
    1620    312.36333    82.649938   -6640.4098   -6557.7598    24933.289   -342.45506   -321.98345   -483.47305   -221.90868    29.214146    29.214146    29.214146   -6563.0892 
    1630    311.36536    82.385878   -6640.2338   -6557.8479    24929.425   -72.907846   -129.53021   -83.261947    -5.931382    29.212636    29.212636    29.212636   -6558.9823 
    1640    307.15142    81.270888   -6639.2196   -6557.9488    24925.556    147.37727    20.887671     210.6383    210.60585    29.211125    29.211125    29.211125    -6555.656 
    1650    302.76636    80.110621   -6638.1533   -6558.0426    24921.701    290.53421    165.96529    350.31386    355.32347    29.209619    29.209619    29.209619   -6553.5234 
    1660    301.84182    79.865993   -6637.9746   -6558.1086    24917.872    354.75683    290.29453    362.17501    411.80095    29.208123    29.208123    29.208123   -6552.5913 
    1670    306.03075    80.974365   -6639.1154   -6558.1411    24914.074    373.63915     371.3066    304.09977    445.51109    29.206639    29.206639    29.206639   -6552.3309 
    1680    313.73052    83.011689   -6641.1696   -6558.1579     24910.31    427.96125    442.54151    300.86685    540.47538    29.205168    29.205168    29.205168   -6551.5041 
    1690    320.89411    84.907144   -6643.1055   -6558.1983    24906.584    565.18523    529.14509    466.91649    699.49411    29.203712    29.203712    29.203712   -6549.4123 
    1700    323.41361    85.573793   -6643.8798    -6558.306    24902.909    771.28039    625.12005    805.61025    883.11087    29.202275    29.202275    29.202275   -6546.3179 
    1710     319.6823    84.586503   -6643.0903   -6558.5038    24899.301    1033.6402    773.68595     1223.928    1103.3067    29.200865    29.200865    29.200865   -6542.4401 
    1720    311.73797     82.48447   -6641.2625    -6558.778    24895.783    1335.8782    1019.1476    1615.0862    1373.4009     29.19949     29.19949     29.19949   -6538.0202 
    1730    303.97963    80.431648     -6639.52   -6559.0883    24892.381     1677.403    1368.6461    1976.1999    1687.3629     29.19816     29.19816     29.19816   -6533.0272 
    1740    300.28354    79.453678   -6638.8478   -6559.3941    24889.122    2030.0192    1774.4864    2298.3296    2017.2415    29.196885    29.196885    29.196885   -6527.8586 
    1750    301.48346    79.771173   -6639.4463   -6559.6752    24886.037      2350.68    2170.2707    2544.4315    2337.3377    29.195679    29.195679    29.195679   -6523.1629 
    1760    305.00604     80.70323   -6640.6373   -6559.9341    24883.152    2593.0219    2459.5033    2705.7067    2613.8557    29.194551    29.194551    29.194551   -6519.6623 
    1770    307.31315    81.313682   -6641.4973   -6560.1836    24880.488    2731.5248    2598.5689     2791.152    2804.8534    29.193509    29.193509    29.193509   -6517.7653 
    1780    306.49374     81.09687   -6641.5277   -6560.4309    24878.056    2809.2613    2662.8763    2848.2626    2916.6451    29.192558    29.192558    29.192558   -6516.8096 
    1790    302.96445    80.163034   -6640.8306   -6560.6676    24875.863    2895.4597    2740.4751    2935.0332    3010.8708      29.1917      29.1917      29.1917   -6515.7118 
    1800    298.86696    79.078858   -6639.9528    -6560.874    24873.917     2979.691    2824.7465    3019.1268    3095.1998    29.190938    29.190938    29.190938    -6514.614 
    1810     296.6193    78.484137    -6639.514   -6561.0299    24872.223     3032.974    2884.5551    3067.2319     3147.135    29.190276    29.190276    29.190276   -6513.9459 
    1820    297.49192    78.715028     -6639.84    -6561.125    24870.787    3066.6132    2919.7634    3113.1477    3166.9284    29.189714    29.189714    29.189714   -6513.5215 
    1830    300.95804    79.632148   -6640.7941   -6561.1619    24869.611    3039.6241    2885.6073    3119.0016    3114.2634    29.189254    29.189254    29.189254   -6513.9797 
    1840    305.36897     80.79926   -6641.9536   -6561.1543    24868.693    2936.4357    2775.9264    3053.0536    2980.3272    29.188895    29.188895    29.188895   -6515.5755 
    1850    309.11694    81.790956    -6642.912    -6561.121    24868.023    2814.8242    2645.4445    2963.4835    2835.5446    29.188633    29.188633    29.188633    -6517.431 
    1860    310.94888     82.27568   -6643.3548   -6561.0792    24867.593    2728.3275    2541.1915     2890.399    2753.3919    29.188464    29.188464    29.188464   -6518.7324 
    1870    310.28295    82.099477    -6643.137   -6561.0375    24867.393    2691.0947    2499.5667    2841.7055    2732.0119    29.188387    29.188387    29.188387    -6519.269 
    1880    307.83855    81.452699   -6642.4452   -6560.9925    24867.423    2697.4676    2521.0042    2831.1462    2740.2525    29.188398    29.188398    29.188398   -6519.1251 
    1890    305.39477    80.806087   -6641.7371    -6560.931     24867.68    2712.5468    2574.9129    2837.1222    2725.6053    29.188499    29.188499    29.188499   -6518.8291 
    1900    304.60587    80.597349   -6641.4347   -6560.8374    24868.168    2710.2498    2608.5888      2822.56    2699.6007    29.188689    29.188689    29.188689   -6518.7703 
    1910    305.97388    80.959317   -6641.6606   -6560.7012    24868.884    2696.4024    2598.6219    2776.0249    2714.5605     29.18897     29.18897     29.18897   -6518.8478 
    1920    308.49869    81.627371   -6642.1484   -6560.5211    24869.829    2663.0616    2544.8288    2691.4357    2752.9203    29.189339    29.189339    29.189339   -6519.1836 
    1930    310.23133    82.085818    -6642.388   -6560.3022    24870.999    2594.2921    2442.4451     2585.788    2754.6432    29.189797    29.189797    29.189797   -6520.0303 
    1940    309.80931    81.974154   -6642.0235   -6560.0494    24872.388    2508.2228    2322.8079    2502.9764    2698.8842     29.19034     29.19034     29.19034   -6521.1114 
    1950    307.46976     81.35512   -6641.1152   -6559.7601    24873.989    2453.4631    2234.2368    2510.2959    2615.8565    29.190967    29.190967    29.190967   -6521.6698 
    1960    304.87194    80.667749   -6640.0909   -6559.4232    24875.798    2418.7523    2165.6881    2590.2295    2500.3392    29.191675    29.191675    29.191675    -6521.869 
    1970    304.26456     80.50704   -6639.5345   -6559.0275    24877.812    2361.5665    2094.7807    2641.0434    2348.8753    29.192462    29.192462    29.192462   -6522.3582 
    1980    306.94894    81.217314   -6639.7917   -6558.5744    24880.025    2256.8592    2027.5938    2553.6227    2189.3612    29.193328    29.193328    29.193328   -6523.5279 
    1990    312.33951    82.643634   -6640.7319   -6558.0883    24882.429    2108.2851    1984.4802    2281.4479    2058.9273    29.194268    29.194268    29.194268   -6525.3458 
    2000    318.12683    84.174933   -6641.7896   -6557.6147    24885.011    1951.7489    1977.2239    1886.1826    1991.8403    29.195278    29.195278    29.195278   -6527.3001 
    2010    321.44369    85.052559    -6642.255   -6557.2024    24887.758    1810.1288    1983.4106    1468.9487     1978.027    29.196352    29.196352    29.196352   -6529.0844 
    2020    320.61129    84.832309   -6641.7119   -6556.8796    24890.658    1689.7673     1965.994    1148.6989    1954.6088    29.197486    29.197486    29.197486   -6530.6282 
    2030    316.19448    83.663643   -6640.3058   -6556.6421    24893.702    1618.7512    1889.4721    1077.7778    1889.0037    29.198676    29.198676    29.198676   -6531.4909 
    2040    310.61849     82.18826     -6638.65   -6556.4617    24896.883    1606.5773    1744.7641    1282.9767     1791.991     29.19992     29.19992     29.19992   -6531.4965 
    2050    306.65792    81.140312   -6637.4451   -6556.3048    24900.199     1598.679    1560.0691     1577.317     1658.651    29.201216    29.201216    29.201216   -6531.4589 
    2060    306.08104    80.987672   -6637.1357    -6556.148     24903.65    1497.2136    1337.0358    1710.5597    1444.0453    29.202565    29.202565    29.202565   -6532.8759 
    2070     308.8833    81.729135   -6637.7151    -6555.986    24907.227    1271.4999    1077.9907    1564.1912    1172.3178    29.203963    29.203963    29.203963   -6536.2194 
    2080    313.37317    82.917136   -6638.7474   -6555.8303     24910.91    967.35045    803.82888    1182.1233    916.09917    29.205403    29.205403    29.205403   -6540.7898 
    2090     317.2859    83.952427   -6639.6537   -6555.7013    24914.675    647.40541    541.33025    720.21376    680.67223    29.206874    29.206874    29.206874   -6545.6338 
    2100    319.05462    84.420423   -6640.0375    -6555.617    24918.494    369.49594    323.57512     337.5527    447.35999    29.208366    29.208366    29.208366   -6549.8703 
    2110    318.48792    84.270475   -6639.8546   -6555.5841    24922.345    161.77203    183.84919    73.261533    228.20538    29.209871    29.209871    29.209871   -6553.0677 
    2120    316.61491    83.774887   -6639.3717   -6555.5968    24926.208   -24.879281    70.449295   -145.51515   0.42801505     29.21138     29.21138     29.21138   -6555.9838 
    2130    314.89594    83.320055   -6638.9632   -6555.6432    24930.068   -253.27707   -129.70278    -372.6419   -257.48654    29.212888    29.212888    29.212888   -6559.5842 
    2140    314.28283    83.157827   -6638.8713   -6555.7134    24933.905   -521.94847   -439.09604   -589.88376   -536.86562    29.214386    29.214386    29.214386   -6563.8363 
    2150    314.51307    83.218749   -6639.0225   -6555.8037    24937.697   -786.70137   -792.29686   -774.77244   -793.03481    29.215867    29.215867    29.215867   -6568.0486 
    2160     314.6952    83.266938   -6639.1817   -6555.9148    24941.421   -1001.4057   -1112.1999   -935.29903   -956.71809    29.217322    29.217322    29.217322   -6571.5039 
    2170    314.41963    83.194025   -6639.2417   -6556.0476     24945.06   -1163.4899    -1370.015   -1096.0514   -1024.4033    29.218742    29.218742    29.218742   -6574.1626 
    2180    313.76721    83.021398   -6639.2224    -6556.201    24948.598   -1303.6596   -1580.3956   -1276.3315   -1054.2518    29.220123    29.220123    29.220123   -6576.5012 
    2190    312.89035    82.789383   -6639.1608   -6556.3714    24952.024   -1466.3811   -1765.8508   -1482.9295   -1150.3632    29.221461    29.221461    29.221461   -6579.2086 
    2200    312.00512    82.555156   -6639.1095   -6556.5544    24955.323   -1671.2484   -1944.9417   -1673.6353   -1395.1681    29.222749    29.222749    29.222749   -6582.5855 
    2210    311.26116    82.358307   -6639.1035   -6556.7452    24958.479   -1849.2473   -2060.9395   -1779.1328   -1707.6696    29.223981    29.223981    29.223981   -6585.5525 
    2220    310.61053    82.186155   -6639.1264   -6556.9402    24961.476   -1980.1378   -2123.2707   -1828.8748   -1988.2679     29.22515     29.22515     29.22515   -6587.7902 
    2230    310.04811    82.037339   -6639.1732   -6557.1359    24964.304    -2106.727   -2219.4801   -1918.6566   -2182.0445    29.226254    29.226254    29.226254   -6589.9618 
    2240    309.67295    81.938074   -6639.2674   -6557.3293    24966.951   -2252.2832   -2385.1825   -2090.7376   -2280.9294    29.227287    29.227287    29.227287    -6592.427 
    2250    309.54966    81.905451   -6639.4243   -6557.5189    24969.404   -2417.1778   -2611.8156   -2287.4198    -2352.298    29.228244    29.228244    29.228244   -6595.1898 
    2260    309.51417    81.896062   -6639.5999   -6557.7039     24971.65   -2607.9638   -2886.7633   -2474.7248   -2462.4034     29.22912     29.22912     29.22912   -6598.3518 
    2270    309.37388    81.858942    -6639.743    -6557.884    24973.672   -2811.1758    -3163.091   -2665.5426   -2604.8938    29.229909    29.229909    29.229909   -6601.7028 
    2280    309.01738    81.764613   -6639.8235   -6558.0589    24975.454   -2979.1313   -3367.8873   -2836.1211   -2733.3855    29.230604    29.230604    29.230604   -6604.4989 
    2290    308.12485    81.528454   -6639.7549   -6558.2264    24976.981   -3095.9421   -3480.3287   -2974.4727   -2833.0249      29.2312      29.2312      29.2312   -6606.4903 
    2300    306.48595    81.094809   -6639.4767   -6558.3819    24978.243   -3154.3304   -3495.9708     -3069.24   -2897.7805    29.231693    29.231693    29.231693   -6607.5585 
    2310    304.67727    80.616241   -6639.1336   -6558.5174    24979.236   -3174.1116    -3429.119   -3128.6031   -2964.6128     29.23208     29.23208     29.23208   -6608.0044 
    2320    303.97099    80.429362   -6639.0548   -6558.6254    24979.958   -3205.1227   -3360.7131   -3189.2021   -3065.4529    29.232362    29.232362    29.232362   -6608.5974 
    2330    305.60206    80.860936   -6639.5654   -6558.7045    24980.405   -3251.4754   -3350.7532   -3253.2617   -3150.4115    29.232536    29.232536    29.232536      -6609.4 
    2340    310.01089    82.027492   -6640.7919   -6558.7644    24980.575   -3288.0264   -3393.3454    -3285.935   -3184.7987    29.232602    29.232602    29.232602   -6610.0302 
    2350    315.66187    83.522716   -6642.3517    -6558.829    24980.464   -3311.6037   -3452.6345   -3275.2089   -3206.9676    29.232559    29.232559    29.232559   -6610.4621 
    2360    319.19003    84.456252   -6643.3852    -6558.929    24980.071   -3299.8914   -3490.3015   -3211.8755   -3197.4973    29.232406    29.232406    29.232406   -6610.3787 
    2370     317.5381    84.019157   -6643.1056   -6559.0865    24979.397   -3178.2071   -3403.9882   -3067.1001    -3063.533    29.232143    29.232143    29.232143   -6608.6376 
    2380     309.9705    82.016804   -6641.3147   -6559.2979    24978.453   -2938.5945   -3150.0678   -2848.5854   -2817.1303    29.231774    29.231774    29.231774   -6605.1116 
    2390     298.9574    79.102789   -6638.6328     -6559.53    24977.259   -2649.2877   -2802.7699   -2605.3359   -2539.7572    29.231309    29.231309    29.231309   -6600.8313 
    2400    289.24598     76.53319    -6636.268   -6559.7348    24975.839   -2376.8246   -2468.8659   -2377.2709   -2284.3372    29.230755    29.230755    29.230755   -6596.7864 
    2410    285.19315    75.460829   -6635.3312   -6559.8703    24974.217   -2187.4201   -2264.7699   -2207.1478   -2090.3426    29.230122    29.230122    29.230122   -6593.9672 
    2420     288.3099    76.285507   -6636.1948   -6559.9092    24972.409   -2142.1421   -2267.3473   -2142.1213   -2016.9577    29.229416    29.229416    29.229416   -6593.2979 
    2430    296.73987    78.516038   -6638.3529   -6559.8369    24970.418   -2211.3397   -2408.7992   -2157.9667   -2067.2532     29.22864     29.22864     29.22864   -6594.3013 
    2440    306.74389    81.163057   -6640.8132   -6559.6501    24968.239   -2323.5775   -2554.4417   -2227.7349   -2188.5558    29.227789    29.227789    29.227789   -6595.8607 
    2450    315.02704    83.354742   -6642.7166   -6559.3619    24965.864   -2404.8667   -2583.7402   -2318.9341   -2311.9257    29.226863    29.226863    29.226863   -6596.8356 
    2460    319.76555    84.608531   -6643.6117   -6559.0031    24963.286   -2374.5005   -2410.9655   -2343.5523   -2368.9837    29.225857    29.225857    29.225857   -6595.9999 
    2470    320.67565    84.849338   -6643.4626   -6558.6133    24960.508   -2222.1526   -2074.4589   -2261.3244   -2330.6746    29.224772    29.224772    29.224772   -6593.2325 
    2480    318.84524     84.36502   -6642.5882   -6558.2232    24957.543    -1996.857   -1708.9802   -2109.9912   -2171.5996    29.223615    29.223615    29.223615   -6589.3288 
    2490    315.71697    83.537294   -6641.3841   -6557.8468     24954.41   -1725.5688   -1420.3274     -1892.24   -1864.1392    29.222393    29.222393    29.222393   -6584.7231 
    2500    312.40022    82.659696   -6640.1435   -6557.4838    24951.133   -1396.0462   -1209.5246   -1554.2915   -1424.3226    29.221113    29.221113    29.221113   -6579.2249 
    2510     309.6161    81.923031   -6639.0504   -6557.1274     24947.74   -1044.5007   -1050.1276   -1141.0463    -942.3282    29.219789    29.219789    29.219789   -6573.3914 
    2520    307.55212    81.376912   -6638.1469     -6556.77     24944.26   -724.45984   -899.77071   -752.57708   -521.03174     29.21843     29.21843     29.21843   -6568.0491 
    2530    306.06596    80.983681   -6637.3906   -6556.4069     24940.72   -446.90689   -687.03231   -452.72894   -200.95941    29.217048    29.217048    29.217048   -6563.3638 
    2540    305.22754     80.76184   -6636.7975   -6556.0357    24937.145   -216.49593   -412.25127   -255.17321    17.936702    29.215652    29.215652    29.215652   -6559.4053 
    2550    305.79438    80.911822   -6636.5691   -6555.6573    24933.555   -3.7849574   -90.704919   -96.765242    176.11529    29.214249    29.214249    29.214249   -6555.7162 
    2560    308.43665    81.610954   -6636.8892   -6555.2783    24929.966    196.23149    230.40644    66.705665    291.58237    29.212848    29.212848    29.212848   -6552.2249 
    2570    312.83238    82.774045   -6637.6878   -6554.9137    24926.397    351.35156    475.34488    224.84667    353.86314    29.211454    29.211454    29.211454   -6549.4475 
    2580    317.97841    84.135662   -6638.7218   -6554.5861     24922.86    456.16754     610.8266    360.58489    397.09112    29.210072    29.210072    29.210072   -6547.4902 
    2590    322.56647    85.349643   -6639.6697   -6554.3201    24919.365    540.03188    671.37615     466.8721    481.84739    29.208706    29.208706    29.208706   -6545.9207 
    2600    325.16476    86.037137   -6640.1726   -6554.1354    24915.919    622.58729    716.42086     554.7617    596.57931     29.20736     29.20736     29.20736   -6544.4534 
    2610    325.20801    86.048582   -6640.0894   -6554.0408    24912.528    760.09317    828.00868     701.6085    750.66232    29.206035    29.206035    29.206035   -6542.2219 
    2620    323.27152    85.536194   -6639.5677   -6554.0315    24909.206    991.14434     1058.688    943.94547    970.79955    29.204737    29.204737    29.204737   -6538.6221 
    2630    320.39569    84.775262    -6638.869   -6554.0937    24905.971    1262.7306    1360.9927     1217.919      1209.28    29.203472    29.203472    29.203472   -6534.4644 
    2640    317.59343    84.033799   -6638.2441   -6554.2103    24902.846    1495.2391    1639.2015    1452.8852    1393.6306    29.202251    29.202251    29.202251   -6530.9696 
    2650    315.45383    83.467669   -6637.8338   -6554.3661     24899.85    1689.9554    1849.8661    1688.9737    1531.0263     29.20108     29.20108     29.20108   -6528.1021 
    2660    314.23757    83.145852   -6637.6962   -6554.5503        24897    1873.4785    1994.9902    1954.6599    1670.7856    29.199966    29.199966    29.199966   -6525.4374 
    2670    313.95166    83.070201   -6637.8275   -6554.7573    24894.311    2040.8439    2077.7066    2180.6182    1864.2068    29.198914    29.198914    29.198914    -6523.047 
    2680     314.2864    83.158771   -6638.1445   -6554.9857    24891.798    2161.7459     2083.458    2295.8528    2105.9267    29.197932    29.197932    29.197932   -6521.4003 
    2690    315.12512    83.380693   -6638.6182   -6555.2375    24889.469    2240.8049    2055.6202    2322.9248    2343.8696    29.197021    29.197021    29.197021   -6520.4271 
    2700    316.52746    83.751746   -6639.2686   -6555.5168    24887.333    2303.8963    2062.7975    2322.5503    2526.3411    29.196186    29.196186    29.196186   -6519.7294 
    2710    317.95383    84.129157   -6639.9585   -6555.8293    24885.393     2354.529    2143.2889    2318.3623    2601.9358    29.195427    29.195427    29.195427   -6519.2582 
    2720    318.38312    84.242745   -6640.4206   -6556.1779    24883.655    2394.7461    2289.3139    2344.3372    2550.5873    29.194747    29.194747    29.194747   -6518.9847 
    2730     316.9795    83.871355   -6640.4278   -6556.5564    24882.121    2472.3563    2477.7065     2476.173    2463.1895    29.194148    29.194148    29.194148   -6518.1602 
    2740    313.57457    82.970425   -6639.9167   -6556.9463    24880.799    2624.3978    2685.0014     2719.136     2469.056     29.19363     29.19363     29.19363    -6516.191 
    2750    308.91399    81.737258   -6639.0565   -6557.3193      24879.7    2803.9855    2823.0023    2963.5796    2625.3744    29.193201    29.193201    29.193201   -6513.7771 
    2760    304.37905    80.537332   -6638.1843    -6557.647     24878.84    2952.3773    2841.0339     3128.487    2887.6108    29.192864    29.192864    29.192864    -6511.802 
    2770    301.28667    79.719102   -6637.6292   -6557.9101     24878.23    3021.3847    2761.1403     3183.275    3119.7389    29.192626    29.192626    29.192626   -6510.9948 
    2780    300.41825    79.489322   -6637.5917   -6558.1024    24877.875     2968.884    2593.2007    3113.9226    3199.5288    29.192487    29.192487    29.192487   -6512.0029 
    2790    302.04075    79.918628   -6638.1485   -6558.2299    24877.772    2829.0476    2397.0433    2955.8603    3134.2392    29.192447    29.192447    29.192447   -6514.3019 
    2800    305.97568    80.959794   -6639.2683   -6558.3085    24877.908    2641.0153    2226.8189    2743.4891    2952.7381      29.1925      29.1925      29.1925      -6517.3 
    2810    311.58793     82.44477   -6640.8076   -6558.3628    24878.268    2425.0703    2089.7354    2510.9355    2674.5399    29.192641    29.192641    29.192641   -6520.7068 
    2820    317.53347    84.017933   -6642.4411   -6558.4231    24878.833    2197.6623    1938.6005    2302.6378    2351.7486    29.192862    29.192862    29.192862   -6524.2975 
    2830    321.85201    85.160598   -6643.6808   -6558.5202    24879.585    1995.1368    1766.4118    2142.5715    2076.4271    29.193156    29.193156    29.193156   -6527.5385 
    2840    322.97702     85.45827   -6644.1333   -6558.6751    24880.505    1860.0655    1647.8937    2025.1103    1907.1923    29.193516    29.193516    29.193516   -6529.7897 
    2850    320.59888    84.829026   -6643.7193   -6558.8903    24881.583    1814.6561    1630.7313    1966.7292    1846.5079    29.193937    29.193937    29.193937   -6530.7089 
    2860    315.42402    83.459781   -6642.6075   -6559.1478    24882.815    1816.3482    1666.8301    1943.4181    1838.7965    29.194419    29.194419    29.194419   -6530.9387 
    2870    308.99972     81.75994   -6641.1752   -6559.4152      24884.2    1815.4451    1686.9809    1907.5863     1851.768    29.194961    29.194961    29.194961   -6531.2186 
    2880    303.45996    80.294146   -6639.9523   -6559.6581    24885.738    1829.8169    1700.9181    1879.3482    1909.1845    29.195562    29.195562    29.195562   -6531.2366 
    2890    300.56357    79.527773   -6639.3798    -6559.852    24887.431    1874.3035    1738.7438    1880.1233    2004.0435    29.196224    29.196224    29.196224   -6530.7375 
    2900    300.83804    79.600397   -6639.5887   -6559.9883    24889.281    1899.4922    1753.9852    1861.3901    2083.1014    29.196948    29.196948    29.196948   -6530.4804 
    2910    303.39615    80.277261   -6640.3503    -6560.073    24891.291    1850.0091    1684.6399    1765.0108    2100.3766    29.197734    29.197734    29.197734   -6531.3314 
    2920    306.73522    81.160765    -6641.282   -6560.1212    24893.456    1720.9399    1557.3571     1591.592    2013.8707     29.19858     29.19858     29.19858   -6533.3825 
    2930    309.32407    81.845763   -6641.9964   -6560.1506    24895.766    1547.0661    1433.3118    1411.6494    1796.2371    29.199483    29.199483    29.199483   -6536.1112 
    2940    310.30141    82.104361   -6642.2791   -6560.1747    24898.206    1373.8282    1332.6226    1292.8891    1495.9727    29.200437    29.200437    29.200437   -6538.8251 
    2950    309.78049     81.96653   -6642.1655    -6560.199    24900.761    1228.2235    1239.4856    1226.7985    1218.3862    29.201436    29.201436    29.201436   -6541.1101 
    2960    308.22323    81.554484   -6641.7754   -6560.2209    24903.419    1115.7955     1129.572    1161.2601    1056.5544    29.202475    29.202475    29.202475   -6542.8775 
    2970    306.31761    81.050267   -6641.2832   -6560.2329    24906.171    999.72078    969.84672    1031.4059     997.9097     29.20355     29.20355     29.20355    -6544.692 
    2980    304.61578    80.599969   -6640.8257   -6560.2257    24909.006    859.21873    755.18632    853.17572    969.29415    29.204658    29.204658    29.204658   -6546.8675 
    2990    303.04388    80.184051   -6640.3743   -6560.1902    24911.912    726.64564    547.60532    713.72256    918.60904    29.205794    29.205794    29.205794   -6548.8918 
    3000    301.48767    79.772286   -6639.8899   -6560.1176    24914.878    608.61596    398.61016    612.13668    815.10105    29.206953    29.206953    29.206953   -6550.6532 
    3010    300.41248    79.487796   -6639.4862   -6559.9984    24917.895    475.58754    304.78034    469.43798     652.5443    29.208132    29.208132    29.208132   -6552.6019 
    3020    300.63497    79.546666    -6639.371   -6559.8244    24920.949    313.48887    225.95328    288.02987    426.48348    29.209325    29.209325    29.209325   -6554.9482 
    3030    302.73175    80.101464   -6639.6931   -6559.5916    24924.029    132.73281    132.45885    123.43753    142.30206    29.210529    29.210529    29.210529   -6557.5268 
    3040    306.52547    81.105266   -6640.4103   -6559.3051    24927.118    -60.61102    27.152927   -57.423343   -151.56264    29.211735    29.211735    29.211735   -6560.2481 
    3050    310.79276    82.234371   -6641.2142   -6558.9798      24930.2   -295.94537   -149.25376   -325.49011   -413.09224    29.212939    29.212939    29.212939   -6563.5848 
    3060    313.87449    83.049783   -6641.6879   -6558.6381    24933.255   -524.16127   -392.46145   -608.07208   -571.95028    29.214132    29.214132    29.214132   -6566.7951 
    3070    314.87958    83.315726   -6641.6164   -6558.3007    24936.264   -692.64682   -628.60712   -824.22047   -625.11288    29.215307    29.215307    29.215307    -6569.081 
    3080    313.93298     83.06526   -6641.0445   -6557.9792    24939.212   -807.11121   -823.69304   -957.02159   -640.61899    29.216459    29.216459    29.216459   -6570.5426 
    3090    311.73402    82.483424   -6640.1571   -6557.6737     24942.09   -873.50665   -944.90452   -995.86814    -679.7473    29.217583    29.217583    29.217583   -6571.2721 
    3100    309.19338    81.811183   -6639.1875   -6557.3763    24944.892   -929.97104   -1005.6831   -996.44911   -787.78091    29.218677    29.218677    29.218677   -6571.8553 
    3110    307.03095    81.239013   -6638.3153   -6557.0763    24947.613   -1029.9928   -1085.6541   -1046.3593    -957.9649    29.219739    29.219739    29.219739   -6573.1144 
    3120      305.747    80.899286   -6637.6648   -6556.7655    24950.244   -1159.6801   -1220.1802   -1133.1998   -1125.6602    29.220766    29.220766    29.220766   -6574.8249 
    3130    305.77975     80.90795   -6637.3494   -6556.4415    24952.775   -1279.8569   -1402.2278   -1192.3687   -1244.9743    29.221754    29.221754    29.221754   -6576.3744 
    3140    307.39235    81.334638   -6637.4453   -6556.1107    24955.195   -1407.2463   -1628.6939   -1238.6801   -1354.3649    29.222699    29.222699    29.222699   -6578.0297 
    3150    310.33233    82.112544   -6637.9016    -6555.789    24957.493   -1577.5729   -1880.1273   -1334.1036   -1518.4879    29.223596    29.223596    29.223596   -6580.3633 
    3160    314.05924    83.098667   -6638.5987      -6555.5    24959.655   -1792.6186    -2144.128   -1503.0892   -1730.6387     29.22444     29.22444     29.22444   -6583.4265 
    3170    317.89343    84.113177   -6639.3817   -6555.2685    24961.663   -2032.0645   -2397.1295   -1752.3303   -1946.7337    29.225223    29.225223    29.225223   -6586.9278 
    3180    320.91175     84.91181   -6640.0251   -6555.1133    24963.495    -2254.004   -2589.3003   -2049.1437    -2123.568    29.225938    29.225938    29.225938   -6590.2329 
    3190    322.26518    85.269922   -6640.3108   -6555.0409    24965.135   -2419.5494   -2707.6182   -2333.4126   -2217.6174    29.226578    29.226578    29.226578   -6592.7424 
    3200    321.46038    85.056975   -6640.0997   -6555.0427    24966.568   -2520.4381   -2806.0851   -2544.7058   -2210.5232    29.227137    29.227137    29.227137   -6594.3185 
    3210    318.68725    84.323219   -6639.4207   -6555.0975    24967.785   -2560.0406   -2908.2087   -2635.3784   -2136.5345    29.227612    29.227612    29.227612   -6594.9923 
    3220    315.05388    83.361845   -6638.5408    -6555.179    24968.784   -2552.7635   -2972.1567   -2639.5984   -2046.5353    29.228002    29.228002    29.228002    -6594.962 
    3230    312.17317    82.599622    -6637.865   -6555.2653    24969.564   -2525.9217   -2958.8789    -2608.419   -2010.4672    29.228306    29.228306    29.228306   -6594.6313 
    3240    311.33278    82.377257   -6637.7221   -6555.3449    24970.128   -2522.8211   -2877.1476   -2556.9544   -2134.3613    29.228527    29.228527    29.228527   -6594.6634 
    3250    312.65222    82.726376   -6638.1447   -6555.4183    24970.476   -2545.6885   -2759.8143   -2490.0681    -2387.183    29.228662    29.228662    29.228662   -6595.0937 
    3260    314.68822    83.265093   -6638.7604   -6555.4953    24970.607   -2552.4252   -2645.6613      -2433.6   -2578.0144    29.228714    29.228714    29.228714   -6595.2759 
    3270    315.46796    83.471407   -6639.0584    -6555.587    24970.521   -2519.8946   -2584.2655   -2394.2665   -2581.1518     29.22868     29.22868     29.22868   -6594.8605 
    3280    314.12373    83.115732   -6638.8128    -6555.697     24970.22   -2449.4992   -2595.9201   -2338.7115   -2413.8659    29.228562    29.228562    29.228562   -6593.8729 
    3290    311.54054     82.43223   -6638.2513   -6555.8191     24969.71   -2360.3344   -2640.9613   -2234.1489    -2205.893    29.228364    29.228364    29.228364   -6592.6046 
    3300    309.58511    81.914833   -6637.8567   -6555.9418        24969   -2287.0802   -2671.3053   -2096.7646   -2093.1707    29.228086    29.228086    29.228086   -6591.5847 
    3310     309.6264    81.925759    -6637.984   -6556.0583    24968.095   -2243.3265   -2644.7043   -1996.4626   -2088.8126    29.227733    29.227733    29.227733   -6591.0179 
    3320    311.37421     82.38822   -6638.5591   -6556.1709        24967   -2192.9655     -2535.71   -1961.3997   -2081.7867    29.227306    29.227306    29.227306   -6590.3443 
    3330    312.95324    82.806025   -6639.0954   -6556.2894    24965.718     -2120.68   -2374.5851    -1985.643    -2001.812    29.226806    29.226806    29.226806   -6589.3346 
    3340    312.66132    82.728783   -6639.1504   -6556.4216    24964.257   -2044.7714   -2202.8866   -2061.2733   -1870.1544    29.226236    29.226236    29.226236   -6588.2821 
    3350    310.29797    82.103453   -6638.6692   -6556.5658    24962.624     -1953.58   -2020.7366   -2124.6504   -1715.3531    29.225598    29.225598    29.225598   -6587.0034 
    3360    307.16531    81.274563   -6637.9846     -6556.71    24960.825   -1859.4691    -1860.624   -2124.2786   -1593.5047    29.224896    29.224896    29.224896   -6585.6793 
    3370    305.43022    80.815466   -6637.6554     -6556.84    24958.869   -1803.5956   -1755.3341   -2079.0141   -1576.4386    29.224133    29.224133    29.224133   -6584.9366 
    3380    306.75562    81.166161   -6638.1152   -6556.9491    24956.761   -1794.7029    -1691.705   -2023.3402   -1669.0635     29.22331     29.22331     29.22331   -6584.9048 
    3390    311.04838    82.302007   -6639.3477   -6557.0457    24954.502   -1818.9417   -1656.2287   -1971.1233    -1829.473    29.222428    29.222428    29.222428   -6585.3764 
    3400    316.51526     83.74852   -6640.9013   -6557.1528     24952.09   -1849.2567   -1629.3977   -1920.6574    -1997.715    29.221487    29.221487    29.221487   -6585.9529 
    3410    320.70956    84.858312   -6642.1586   -6557.3003    24949.523   -1815.7273   -1573.0599   -1825.9802   -2048.1419    29.220485    29.220485    29.220485   -6585.5753 
    3420    321.51362    85.071063   -6642.5828   -6557.5118    24946.804   -1687.4458     -1471.34   -1671.3547   -1919.6427    29.219423    29.219423    29.219423   -6583.7863 
    3430    318.04028    84.152032   -6641.9426   -6557.7906    24943.946   -1462.9247   -1292.3048   -1466.4815   -1629.9879    29.218307    29.218307    29.218307   -6580.5665 
    3440    311.27095    82.360899    -6640.474   -6558.1131    24940.966   -1155.4431   -1009.1596   -1233.0545   -1224.1152    29.217144    29.217144    29.217144   -6576.0998 
    3450    303.81329    80.387634   -6638.8253   -6558.4376     24937.89    -844.4748   -690.18285   -1019.6286   -823.61297    29.215943    29.215943    29.215943   -6571.5819 
    3460    298.84376     79.07272   -6637.7966   -6558.7238    24934.746   -587.46344   -414.02619   -830.31405   -518.05009    29.214715    29.214715    29.214715   -6567.8666 
    3470    298.40366     78.95627   -6637.9059   -6558.9496    24931.554   -387.36695   -228.76169   -639.98204   -293.35713    29.213468    29.213468    29.213468   -6564.9775 
    3480    302.07261    79.927058   -6639.0435   -6559.1164    24928.333    -253.5755   -169.49957   -458.49129   -132.73565     29.21221     29.21221     29.21221   -6563.0618 
    3490    307.26994     81.30225   -6640.5456   -6559.2434    24925.092   -194.25655   -220.58536   -322.88514   -39.299138    29.210944    29.210944    29.210944   -6562.2654 
    3500    311.22153    82.347821   -6641.7042   -6559.3564    24921.838   -194.90941   -321.21762   -255.93507   -7.5755301    29.209673    29.209673    29.209673   -6562.3882 
    3510    312.70534    82.740432    -6642.216   -6559.4755    24918.571    -201.0998   -377.00242   -225.71954   -0.5774533    29.208396    29.208396    29.208396   -6562.6032 
    3520    312.59733    82.711851   -6642.3214   -6559.6095     24915.29   -138.80453    -291.9672   -156.79714    32.350751    29.207114    29.207114    29.207114   -6561.7681 
    3530    312.58396    82.708314   -6642.4679   -6559.7596    24912.003    40.448608   -16.467185   -19.043311    156.85632     29.20583     29.20583     29.20583   -6559.1307 
    3540    313.05287    82.832386   -6642.7594    -6559.927    24908.722    294.72112    379.20689    137.79151    367.16497    29.204548    29.204548    29.204548    -6555.345 
    3550    312.94382    82.803531   -6642.9183   -6560.1148    24905.471    546.57208    755.05343     296.1769    588.48591    29.203277    29.203277    29.203277   -6551.6185 
    3560    311.03521    82.298521   -6642.6209   -6560.3224    24902.269    801.22308    1042.5274     540.6212    820.52067    29.202025    29.202025    29.202025   -6547.8692 
    3570    307.00478    81.232088    -6641.771   -6560.5389    24899.139    1084.3514    1246.7344    904.69549    1101.6242    29.200802    29.200802    29.200802   -6543.6872 
    3580    301.92552    79.888139   -6640.6313   -6560.7432    24896.105    1401.7728    1417.3515     1338.476    1449.4908    29.199616    29.199616    29.199616   -6538.9611 
    3590    297.67064    78.762316   -6639.6727   -6560.9104    24893.193    1728.2688    1611.6548    1762.9856    1810.1661    29.198477    29.198477    29.198477   -6534.0581 
    3600    295.71442    78.244709   -6639.2656   -6561.0209     24890.43    1974.1508    1779.8499    2077.7853    2064.8174    29.197397    29.197397    29.197397   -6530.3517 
    3610    296.68884    78.502536   -6639.5676   -6561.0651    24887.837    2094.2793    1866.2694     2215.473    2201.0954    29.196383    29.196383    29.196383    -6528.533 
    3620     300.3512    79.471581   -6640.5157   -6561.0441    24885.423    2135.2993    1910.4719    2195.2382    2300.1877    29.195439    29.195439    29.195439   -6527.8781 
    3630    305.56309    80.850625   -6641.8197   -6560.9691    24883.193    2133.2472    1940.1279    2083.1274    2376.4863    29.194567    29.194567    29.194567   -6527.8379 
    3640    310.78789    82.233083   -6643.0912   -6560.8581    24881.147    2137.1838    1974.9298    1988.0831    2448.5386    29.193767    29.193767    29.193767   -6527.6685 
    3650    314.42377     83.19512   -6643.9268   -6560.7316    24879.284    2186.2755    2010.8597    2036.1322    2511.8346    29.193038    29.193038    29.193038   -6526.7822 
    3660    315.12325    83.380199   -6643.9854   -6560.6052    24877.608    2286.5005    2047.5147    2255.0483    2556.9385    29.192382    29.192382    29.192382   -6525.1018 
    3670    312.64725    82.725059   -6643.2062   -6560.4812    24876.128    2407.1277    2110.1021    2512.7131     2598.568    29.191804    29.191804    29.191804    -6523.107 
    3680    308.30366    81.575767   -6641.9207    -6560.345    24874.854    2547.2614    2252.9515     2714.717    2674.1157    29.191305    29.191305    29.191305    -6520.797 
    3690    304.21689    80.494425   -6640.6625   -6560.1681    24873.797    2725.7969    2471.2598    2886.7393    2819.3917    29.190892    29.190892    29.190892   -6517.8501 
    3700    302.14121     79.94521   -6639.8627   -6559.9175    24872.973    2927.8343    2721.6508    3047.1581     3014.694    29.190569    29.190569    29.190569   -6514.4644 
    3710    302.59288    80.064719   -6639.6317   -6559.5669    24872.397    3086.6655    2911.6368    3166.9777     3181.382    29.190344    29.190344    29.190344   -6511.6491 
    3720    304.78257    80.644103   -6639.7527   -6559.1086    24872.082    3156.6945    2958.8925     3240.414    3270.7772    29.190221    29.190221    29.190221   -6510.1043 
    3730    307.29575    81.309079   -6639.8707   -6558.5616    24872.034    3160.6321    2911.1664    3273.3233    3297.4066    29.190202    29.190202    29.190202   -6509.4962 
    3740    308.90485    81.734839    -6639.704   -6557.9692    24872.255    3157.4992    2892.2143     3281.157    3299.1263    29.190288    29.190288    29.190288    -6508.952 
    3750     309.4102    81.868553   -6639.2512   -6557.3826    24872.742    3175.9026     2936.765    3293.4743    3297.4686    29.190479    29.190479    29.190479   -6508.0788 
    3760    309.55793    81.907642   -6638.7491   -6556.8414    24873.498    3185.8137    2982.0183    3301.8309     3273.592    29.190775    29.190775    29.190775   -6507.3822 
    3770    310.09729    82.050351    -6638.416   -6556.3656    24874.523    3157.8722    3005.1295    3271.7683    3196.7189    29.191176    29.191176    29.191176   -6507.3382 
    3780    311.41849    82.399936   -6638.3604   -6555.9605    24875.814    3090.6815    3010.5696    3181.2001    3080.2747    29.191681    29.191681    29.191681   -6507.9737 
    3790     313.5681    82.968714   -6638.5931   -6555.6244    24877.366    2982.9479    2966.9099    3016.6032    2965.3306    29.192288    29.192288    29.192288   -6509.3075 
    3800    316.20248     83.66576   -6639.0211   -6555.3554    24879.169    2861.2187    2863.7675    2805.5309    2914.3575    29.192993    29.192993    29.192993   -6510.9253 
    3810    318.59421    84.298598   -6639.4515   -6555.1529    24881.213    2735.5345    2689.0222    2596.0198    2921.5616    29.193792    29.193792    29.193792   -6512.6711 
    3820    319.96524    84.661367   -6639.6787   -6555.0174    24883.486    2596.9915    2473.7948    2435.0637    2882.1159    29.194682    29.194682    29.194682   -6514.6834 
    3830    319.61804      84.5695   -6639.5156   -6554.9461    24885.978    2455.8993    2290.9638    2330.7717    2745.9625    29.195656    29.195656    29.195656   -6516.7996 
    3840    317.19381    83.928061   -6638.8581   -6554.9301    24888.676    2315.3062    2150.9752    2266.3166    2528.6267    29.196711    29.196711    29.196711   -6518.9634 
    3850    313.37363    82.917256   -6637.8695   -6554.9522    24891.568    2155.2091    1999.9367    2210.8023    2254.8884    29.197842    29.197842    29.197842   -6521.4687 
    3860    310.03828    82.034738   -6637.0258   -6554.9911    24894.641    1959.1485    1790.0662     2110.384    1976.9952    29.199043    29.199043    29.199043   -6524.5498 
    3870    309.34642    81.851676    -6636.882   -6555.0304    24897.876    1742.5218     1551.669    1918.1762      1757.72    29.200308    29.200308    29.200308   -6527.9515 
    3880    312.07208    82.572873   -6637.6403   -6555.0674    24901.257    1500.5203    1311.2519    1597.6952    1592.6136     29.20163     29.20163     29.20163   -6531.7461 
    3890    317.24606    83.941886   -6639.0588   -6555.1169    24904.762    1230.7835    1080.7662    1179.1749    1432.4095       29.203       29.203       29.203   -6535.9852 
    3900     322.5554    85.346713   -6640.5539   -6555.2072    24908.368    981.60184    906.31948    785.67504     1252.811    29.204409    29.204409    29.204409   -6539.9466 
    3910    325.10173     86.02046   -6641.3884   -6555.3679    24912.056    792.82034    794.63291    527.66992    1056.1582     29.20585     29.20585     29.20585   -6543.0404 
    3920    323.21588    85.521473   -6641.1346   -6555.6132    24915.808    654.38274    699.93835    406.02935    857.18051    29.207316    29.207316    29.207316   -6545.4367 
    3930     317.3698    83.974626   -6639.9037    -6555.929    24919.612    519.60876    557.49564    352.78256    648.54809    29.208803    29.208803    29.208803   -6547.8473 
    3940    309.68582    81.941478   -6638.2182   -6556.2767    24923.456    329.28764    332.65435    248.21329    406.99529    29.210305    29.210305    29.210305   -6551.1543 
    3950    303.30524    80.253207   -6636.8633   -6556.6101    24927.325    76.272675    74.691406    3.7076027    150.41902    29.211816    29.211816    29.211816   -6555.4234 
    3960    301.03632     79.65286   -6636.5498   -6556.8969    24931.197   -200.51962   -152.77943   -356.62155   -92.157887    29.213328    29.213328    29.213328   -6560.0172 
    3970    303.51763    80.309405   -6637.4394     -6557.13    24935.047   -508.21398   -374.42547   -767.48087   -382.73562    29.214832    29.214832    29.214832   -6565.0395 
    3980     308.9896    81.757263   -6639.0823    -6557.325    24938.851   -871.48601   -663.97973   -1166.8898   -783.58847    29.216318    29.216318    29.216318   -6570.8902 
    3990    314.49788    83.214729   -6640.7253   -6557.5105    24942.576   -1250.0586   -1039.7647    -1492.248    -1218.163    29.217772    29.217772    29.217772   -6576.9714 
    4000    317.53939    84.019499   -6641.7337   -6557.7142    24946.192    -1592.007   -1492.7574   -1709.9993   -1573.2643    29.219184    29.219184    29.219184   -6582.5021 
    4010    317.49422    84.007547   -6641.9577   -6557.9502    24949.669   -1880.0561   -1965.0882   -1841.2728   -1833.8073    29.220542    29.220542    29.220542   -6587.2271 
    4020    315.45737    83.468606   -6641.6841   -6558.2155    24952.983   -2107.3654   -2339.6641   -1955.8294   -2026.6026    29.221835    29.221835    29.221835   -6591.0366 
    4030    313.08991    82.842186   -6641.3389   -6558.4967    24956.114   -2276.4391   -2541.4987   -2092.4526   -2195.3661    29.223058    29.223058    29.223058   -6593.9554 
    4040    311.51618    82.425785   -6641.2049   -6558.7791    24959.048   -2399.5794   -2589.9684   -2246.8915   -2361.8783    29.224203    29.224203    29.224203   -6596.1602 
    4050     310.5405    82.167625   -6641.2201   -6559.0525    24961.775   -2506.7923   -2569.2149   -2430.1265   -2521.0356    29.225267    29.225267    29.225267   -6598.1081 
    4060    309.28158    81.834518   -6641.1443   -6559.3098    24964.285   -2620.0827   -2545.5169   -2639.0649   -2675.6664    29.226247    29.226247    29.226247   -6600.1345 
    4070    307.27989    81.304881   -6640.8479    -6559.543    24966.569   -2735.4426   -2564.2146   -2819.8445   -2822.2686    29.227138    29.227138    29.227138   -6602.1692 
    4080    304.95422    80.689519   -6640.4322   -6559.7427    24968.618   -2859.3368   -2686.4453   -2953.4541   -2938.1108    29.227937    29.227937    29.227937   -6604.3031 
    4090     303.1905    80.222847   -6640.1231   -6559.9003     24970.42    -2984.996   -2911.5964   -3054.2455   -2989.1462     29.22864     29.22864     29.22864   -6606.4224 
    4100    302.46066    80.029735   -6640.0413   -6560.0116    24971.966   -3082.3395   -3129.0186   -3144.1134   -2973.8864    29.229244    29.229244    29.229244   -6608.0538 
    4110     302.7421    80.104201   -6640.1817   -6560.0775    24973.247   -3131.7419   -3246.1377   -3231.2856   -2917.8023    29.229744    29.229744    29.229744   -6608.8922 
    4120    303.72529    80.364351   -6640.4677   -6560.1033     24974.26   -3164.9976   -3302.8352   -3315.7602   -2876.3973    29.230139    29.230139    29.230139   -6609.4384 
    4130    304.97932    80.696162   -6640.7926   -6560.0965    24975.002   -3201.2961   -3353.1993   -3378.1261   -2872.5627    29.230428    29.230428    29.230428   -6609.9988 
    4140    306.11255    80.996007    -6641.061   -6560.0649     24975.47    -3240.406    -3398.117   -3410.3286   -2912.7723    29.230611    29.230611    29.230611   -6610.5779 
    4150      307.074    81.250404    -6641.266   -6560.0156    24975.661   -3255.1435   -3393.8469   -3384.0768   -2987.5069    29.230685    29.230685    29.230685   -6610.7587 
    4160    307.91747    81.473582   -6641.4278   -6559.9542    24975.574   -3223.3001   -3321.0633   -3294.8485   -3053.9885    29.230651    29.230651    29.230651   -6610.2007 
    4170    308.18442    81.544216   -6641.4292    -6559.885    24975.213    -3179.067    -3234.933   -3203.0432   -3099.2247    29.230511    29.230511    29.230511   -6609.4412 
    4180    307.31587    81.314401   -6641.1234    -6559.809    24974.581   -3123.7279   -3155.7152   -3132.7675   -3082.7011    29.230264    29.230264    29.230264   -6608.5014 
    4190    305.55581    80.848697   -6640.5707    -6559.722    24973.684   -3044.9564   -3071.6575   -3068.5015   -2994.7102    29.229914    29.229914    29.229914   -6607.1848 
    4200    303.83213    80.392619   -6640.0083   -6559.6157    24972.528    -2979.417   -3032.0878   -3020.8897   -2885.2736    29.229463    29.229463    29.229463   -6606.0548 
    4210    303.30078    80.252027   -6639.7339   -6559.4819    24971.119   -2910.8755   -3025.5474   -2988.9929   -2718.0861    29.228913    29.228913    29.228913   -6604.8501 
    4220    304.79319    80.646912   -6639.9648   -6559.3179    24969.465   -2790.1745   -2957.6517   -2957.2312   -2455.6406    29.228268    29.228268    29.228268    -6602.802 
    4230    307.89478    81.467579   -6640.5981   -6559.1305    24967.575   -2626.6832   -2797.9106   -2902.7218   -2179.4172     29.22753     29.22753     29.22753   -6600.0636 
    4240    310.88872    82.259762   -6641.1945   -6558.9347    24965.463   -2468.5168   -2602.6015   -2797.9563   -2004.9926    29.226706    29.226706    29.226706   -6597.3997 
    4250    312.04644    82.566088   -6641.3125   -6558.7464    24963.144   -2299.4342   -2396.2098    -2579.718   -1922.3749    29.225801    29.225801    29.225801   -6594.5734 
    4260    310.70662    82.211578   -6640.7845   -6558.5729    24960.633   -2068.5652    -2137.864   -2230.0019   -1837.8296    29.224821    29.224821    29.224821   -6590.7995 
    4270    307.46139    81.352904   -6639.7613   -6558.4084    24957.949   -1791.0657   -1826.0358   -1833.4798   -1713.6816    29.223774    29.223774    29.223774   -6586.3088 
    4280     304.0867    80.459977   -6638.6975   -6558.2376    24955.116   -1546.3584   -1545.9395   -1511.2409   -1581.8948    29.222668    29.222668    29.222668   -6582.3233 
    4290    302.83343    80.128368   -6638.1734   -6558.0451    24952.155   -1369.5578   -1363.0306    -1320.956   -1424.6868    29.221512    29.221512    29.221512   -6579.3744 
    4300    304.65737    80.610974   -6638.4368   -6557.8258    24949.081   -1238.3802   -1279.1974   -1227.9303   -1208.0129    29.220312    29.220312    29.220312   -6577.1099 
    4310    308.30576    81.576323   -6639.1665   -6557.5901    24945.906   -1099.3752    -1219.961   -1120.2064   -957.95814    29.219073    29.219073    29.219073   -6574.7074 
    4320    311.23859    82.352336   -6639.7113    -6557.359    24942.643   -907.19467   -1106.8209   -914.23048    -700.5327    29.217799    29.217799    29.217799   -6571.4821 
    4330    311.62982    82.455852   -6639.6069    -6557.151    24939.307   -664.73374   -916.93539     -630.344   -446.92184    29.216496    29.216496    29.216496   -6567.4982 
    4340    310.10195    82.051587   -6639.0237   -6556.9721     24935.92   -412.95135   -667.72154   -335.79078   -235.34172    29.215173    29.215173    29.215173   -6563.3992 
    4350    308.96643    81.751132   -6638.5682    -6556.817    24932.503   -212.76509   -397.39135   -120.62541    -120.2785    29.213839    29.213839    29.213839    -6560.128 
    4360    309.96476    82.015287   -6638.6963    -6556.681    24929.072   -67.061359   -115.01917     -29.2568   -56.908105    29.212499    29.212499    29.212499   -6557.7244 
    4370    312.97028    82.810532    -6639.379   -6556.5685     24925.64    50.004192     140.1738   -27.282184    37.120962    29.211158    29.211158    29.211158   -6555.7906 
    4380    316.19511    83.663809   -6640.1551   -6556.4913    24922.218    152.84634    297.05081   -22.400189    183.88839    29.209821    29.209821    29.209821   -6554.1138 
    4390    317.63014    84.043512   -6640.5021   -6556.4586    24918.814    284.01649    369.46024    109.22947    373.35977    29.208491    29.208491    29.208491   -6552.0413 
    4400    316.65138    83.784537   -6640.2524   -6556.4679     24915.44     451.5377     403.5428     380.6406     570.4297    29.207173    29.207173    29.207173    -6549.446 
    4410    314.46442    83.205875   -6639.7115   -6556.5057     24912.11    638.30955    454.28745    721.08062    739.56057    29.205871    29.205871    29.205871   -6546.5806 
    4420    312.86009    82.781377   -6639.3378   -6556.5564    24908.839    845.94687     590.8736    1054.1579    892.80914    29.204593    29.204593    29.204593   -6543.4046 
[...]
   23930    314.41224     83.19207   -6639.1345   -6555.9425    24893.182    1958.1944     1993.973    1952.5359    1928.0744    29.198473    29.198473    29.198473   -6525.5178 
   23940    315.41479    83.457338   -6639.5334   -6556.0761    24894.264    1817.7202    1831.6785    1925.2677    1696.2144    29.198896    29.198896    29.198896   -6527.8328 
   23950    315.90459    83.586938   -6639.8153   -6556.2284    24895.503    1698.1322    1663.4694    1888.8161     1542.111    29.199381    29.199381    29.199381   -6529.8419 
   23960    315.70819     83.53497   -6639.9365   -6556.4016     24896.89    1600.1598     1502.626      1823.21    1474.6435    29.199922    29.199922    29.199922    -6531.536 
   23970     314.7891    83.291784   -6639.8859   -6556.5941    24898.414    1517.4653    1366.4438    1691.6928    1494.2593    29.200519    29.200519    29.200519   -6533.0121 
   23980    313.60689    82.978976     -6639.78    -6556.801    24900.071     1416.758     1248.542    1468.7587    1532.9734    29.201166    29.201166    29.201166   -6534.7826 
   23990    312.58937    82.709746   -6639.7258    -6557.016    24901.852    1287.4721    1128.0337    1219.2224    1515.1601    29.201862    29.201862    29.201862   -6537.0055 
   24000    311.89553    82.526158   -6639.7603   -6557.2341    24903.745     1172.207    1005.7697    1055.2204     1455.631    29.202602    29.202602    29.202602   -6539.0137 
   24010    311.32183     82.37436   -6639.8262   -6557.4519    24905.742    1097.2463    908.94392    985.23073    1397.5641    29.203383    29.203383    29.203383   -6540.3953 
   24020    310.38231    82.125767   -6639.7919   -6557.6661    24907.837    1020.8877    836.55844    927.10217    1299.0024    29.204202    29.204202    29.204202   -6541.7952 
   24030    308.73357    81.689518   -6639.5612   -6557.8717    24910.022     886.6826    739.46035    826.45132    1094.1361    29.205056    29.205056    29.205056   -6544.0859 
   24040    306.74398    81.163083   -6639.2232   -6558.0601    24912.287    695.16165    579.83524    687.11119    818.53852    29.205941    29.205941    29.205941    -6547.251 
   24050     305.6386    80.870603   -6639.0941   -6558.2235    24914.615    487.55026    379.94911    531.44342    551.25825    29.206851    29.206851    29.206851   -6550.6418 
   24060    306.34035    81.056283   -6639.4153    -6558.359     24916.99    301.33794    197.83087    383.25648    322.92647    29.207778    29.207778    29.207778   -6553.6726 
   24070    308.56146    81.643979   -6640.1165   -6558.4726    24919.395    123.64746    36.501586    233.04746    101.39334    29.208718    29.208718    29.208718   -6556.5494 
   24080    311.31095    82.371483   -6640.9481   -6558.5766    24921.815   -80.245899   -145.16462    46.855355   -142.42843    29.209664    29.209664    29.209664   -6559.8248 
   24090    313.43717     82.93407   -6641.6199   -6558.6858    24924.233    -299.6714   -358.74855   -160.76846   -379.49717    29.210608    29.210608    29.210608   -6563.3476 
   24100    314.11119    83.112414   -6641.9237   -6558.8113    24926.631   -496.17445   -580.12727   -353.16258    -555.2335    29.211545    29.211545    29.211545   -6566.5308 
   24110     313.3551    82.912355   -6641.8694    -6558.957    24928.992   -633.34507   -775.68709   -502.83774   -621.51038    29.212467    29.212467    29.212467   -6568.8115 
   24120    311.77499    82.494263   -6641.6135   -6559.1193    24931.304   -710.55703    -930.2913   -615.38745   -585.99233     29.21337     29.21337     29.21337   -6570.1762 
   24130    309.98281    82.020061   -6641.3105   -6559.2904     24933.56   -777.22948   -1055.8834   -753.35704   -522.44796    29.214251    29.214251    29.214251   -6571.3859 
   24140    308.36039    81.590776   -6641.0524   -6559.4617    24935.754   -860.58226   -1154.4324   -923.64107   -503.67331    29.215108    29.215108    29.215108   -6572.8555 
   24150     306.8955    81.203173   -6640.8284   -6559.6252    24937.879   -957.70897   -1214.8073    -1070.506   -587.81364    29.215938    29.215938    29.215938    -6574.532 
   24160    305.22354     80.76078   -6640.5347   -6559.7739    24939.927   -1071.4191   -1234.8895   -1190.9947   -788.37299    29.216738    29.216738    29.216738   -6576.4519 
   24170     303.2316    80.233721   -6640.1333   -6559.8995    24941.888   -1183.7643   -1239.4879    -1269.152   -1042.6529    29.217504    29.217504    29.217504   -6578.3278 
   24180    301.45432    79.763462   -6639.7563   -6559.9928    24943.751   -1260.3936   -1262.9889   -1262.8251   -1255.3669    29.218231    29.218231    29.218231   -6579.6155 
   24190     300.8226    79.596312   -6639.6419   -6560.0456    24945.511   -1310.4773    -1325.439   -1216.2212   -1389.7716    29.218918    29.218918    29.218918   -6580.4494 
   24200    302.03538    79.917208    -6639.971   -6560.0538    24947.163   -1406.6211   -1474.5661    -1263.484   -1481.8132    29.219563    29.219563    29.219563    -6581.956 
   24210    305.05542    80.716296    -6640.737   -6560.0207    24948.697   -1574.2979   -1705.2446   -1452.1759   -1565.4731    29.220162    29.220162    29.220162   -6584.5353 
   24220    308.92225    81.739442   -6641.6962   -6559.9567      24950.1   -1759.9969   -1927.1283    -1699.437   -1653.4253     29.22071     29.22071     29.22071   -6587.3645 
   24230    311.95583    82.542113   -6642.4187   -6559.8766    24951.356   -1903.1206   -2063.5811   -1894.5076   -1751.2731      29.2212      29.2212      29.2212   -6589.5147 
   24240    312.77229    82.758145   -6642.5507   -6559.7925    24952.452   -1966.9357   -2097.2709   -1960.5479   -1842.9882    29.221628    29.221628    29.221628   -6590.4258 
   24250    311.14368    82.327222   -6642.0342    -6559.707    24953.384   -1969.9829   -2064.3381   -1928.3928   -1917.2178    29.221992    29.221992    29.221992   -6590.3889 
   24260    307.91683    81.473412   -6641.0822   -6559.6087    24954.149   -1945.4691   -2012.4372   -1880.7927   -1943.1775    29.222291    29.222291    29.222291   -6589.9097 
   24270    304.61627    80.600099   -6640.0747   -6559.4746     24954.75   -1905.1865   -1972.8919   -1842.1082   -1900.5594    29.222525    29.222525    29.222525   -6589.1489 
   24280    302.66416    80.083581   -6639.3586    -6559.275     24955.19    -1849.079   -1936.6936   -1791.3131   -1819.2304    29.222697    29.222697    29.222697   -6588.0759 
   24290    302.48832    80.037053   -6639.0193   -6558.9822    24955.473   -1789.4184   -1873.5232   -1749.7311   -1745.0009    29.222808    29.222808    29.222808   -6586.8542 
   24300    303.80959    80.386656   -6638.9657   -6558.5791    24955.604   -1735.6606   -1753.7575   -1735.3675   -1717.8568    29.222859    29.222859    29.222859   -6585.6138 
   24310    306.19039    81.016604   -6639.0864   -6558.0698    24955.588   -1698.0819   -1610.7796    -1728.166   -1755.3001    29.222852    29.222852    29.222852   -6584.5192 
   24320    309.22253    81.818896   -6639.3049    -6557.486    24955.426   -1687.0286   -1542.0984   -1693.4134    -1825.574    29.222789    29.222789    29.222789   -6583.7631 
   24330    312.75507     82.75359   -6639.6354   -6556.8818     24955.12   -1690.0783    -1575.442   -1623.6513   -1871.1417    29.222669    29.222669    29.222669    -6583.206 
   24340    316.74171    83.808437   -6640.1243   -6556.3159    24954.669   -1680.2287   -1649.5347   -1542.5259   -1848.6255    29.222494    29.222494    29.222494   -6582.4862 
   24350    320.35875    84.765489   -6640.5997   -6555.8342    24954.075   -1624.4126   -1696.1691   -1460.2571   -1716.8117    29.222262    29.222262    29.222262   -6581.1346 
   24360    321.72125    85.125999   -6640.5865   -6555.4605    24953.341   -1505.5991   -1673.5564   -1362.8669    -1480.374    29.221975    29.221975    29.221975   -6578.9096 
   24370    319.29214    84.483268    -6639.676   -6555.1927    24952.479   -1330.8843   -1575.1151   -1223.1685   -1194.3693    29.221639    29.221639    29.221639   -6575.9201 
   24380    313.38419     82.92005    -6637.925    -6555.005    24951.501   -1138.0563   -1415.0349   -1064.0984   -935.03566    29.221257    29.221257    29.221257   -6572.7285 
   24390    306.42217    81.077933   -6635.9341   -6554.8561    24950.425   -978.35236     -1212.85   -951.09559   -771.11146    29.220837    29.220837    29.220837   -6570.0918 
   24400    301.95433    79.895763   -6634.6017    -6554.706    24949.262   -885.90696    -1014.668   -893.34971   -749.70317    29.220383    29.220383    29.220383   -6568.5014 
   24410    302.68805    80.089901     -6634.62   -6554.5301    24948.022   -879.98379   -908.28784   -851.09064   -880.57289    29.219899    29.219899    29.219899   -6568.2326 
   24420    308.86752    81.724961   -6636.0542   -6554.3292    24946.704   -947.30386   -950.10509   -801.84928   -1089.9572    29.219384    29.219384    29.219384   -6569.0792 
   24430    317.89811    84.114415   -6638.2449   -6554.1304    24945.303    -1031.627   -1080.3156   -752.10622   -1262.4592    29.218837    29.218837    29.218837   -6570.1925 
   24440    325.62054    86.157734   -6640.1356   -6553.9779    24943.812   -1077.4477   -1184.8074   -738.36926   -1309.1666    29.218255    29.218255    29.218255   -6570.7524 
   24450    328.83752    87.008934   -6640.9209    -6553.912    24942.226   -1071.8969   -1210.4355   -806.49427   -1198.7608    29.217636    29.217636    29.217636   -6570.5989 
   24460    327.30305    86.602921   -6640.5522   -6553.9493    24940.547   -1032.3622   -1181.3101   -951.92725   -963.84915     29.21698     29.21698     29.21698   -6570.0197 
   24470    323.45735    85.585364   -6639.6654     -6554.08    24938.778   -963.53809   -1122.1618   -1089.3131   -679.13934    29.216289    29.216289    29.216289    -6569.078 
   24480    320.13237    84.705591   -6638.9879   -6554.2823    24936.923   -855.38815   -1026.1672   -1096.9003   -443.09695    29.215565    29.215565    29.215565   -6567.5959 
   24490    318.70924    84.329037   -6638.8668   -6554.5378    24934.993   -730.36872   -897.42976   -952.04441     -341.632    29.214811    29.214811    29.214811   -6565.9047 
   24500    318.91256    84.382833    -6639.221   -6554.8382    24932.997   -597.83956   -735.49601   -708.90294   -349.11971    29.214031    29.214031    29.214031   -6564.1418 
   24510    319.22097    84.464437   -6639.6457   -6555.1813    24930.947   -436.74602   -516.80377   -422.53592   -370.89837    29.213231    29.213231    29.213231   -6561.9774 
   24520    317.90947    84.117421   -6639.6782   -6555.5608    24928.856    -247.8809   -244.66609   -152.98221   -345.99439    29.212414    29.212414    29.212414   -6559.4176 
   24530     314.3591    83.178008   -6639.1359   -6555.9579    24926.741   -29.134919    63.671155    57.405098   -208.48101    29.211588    29.211588    29.211588   -6556.4112 
   24540    309.57186    81.911326   -6638.2535   -6556.3422     24924.62    195.68679    375.27335    164.67942    47.107605    29.210759    29.210759    29.210759   -6553.2979 
   24550    305.80508    80.914654   -6637.5986   -6556.6839    24922.512     387.7415    622.80233    188.01845    352.40372    29.209936    29.209936    29.209936   -6550.6525 
   24560    305.04518    80.713586   -6637.6813   -6556.9677    24920.433     542.1832    747.98351    227.65483    650.91126    29.209124    29.209124    29.209124   -6548.5346 
   24570    307.32424    81.316615   -6638.5142   -6557.1976    24918.396    652.60839    746.24515    330.14309    881.43692    29.208328    29.208328    29.208328   -6547.0477 
   24580    310.40404    82.131518   -6639.5225    -6557.391    24916.411    738.18353     676.5068    507.06917    1030.9746    29.207552    29.207552    29.207552   -6545.9111 
   24590    311.46339    82.411817   -6639.9775   -6557.5657    24914.486     821.2325    603.22705    734.73576    1125.7347      29.2068      29.2068      29.2068   -6544.7952 
   24600    309.55094    81.905791   -6639.6336   -6557.7278    24912.627    885.87574    568.11165    924.20846    1165.3071    29.206074    29.206074    29.206074   -6543.9531 
   24610    306.49425    81.097005   -6638.9671   -6557.8701     24910.84    924.25682    615.26201     1024.183    1133.3255    29.205375    29.205375    29.205375   -6543.4996 
   24620    305.15897    80.743695   -6638.7259   -6557.9822    24909.129    952.33846    745.42874    1051.9829    1059.6038    29.204707    29.204707    29.204707   -6543.1762 
   24630    307.09773    81.256682   -6639.3197    -6558.063    24907.496    981.49412    881.73939    1056.2543    1006.4887    29.204068    29.204068    29.204068   -6542.8047 
   24640     311.6014    82.448335   -6640.5742   -6558.1259    24905.943    1007.9728    962.99234    1076.9504    983.97571    29.203461    29.203461    29.203461   -6542.4569 
   24650    315.96485    83.602882   -6641.7974   -6558.1945    24904.473    1033.5579    988.35711    1114.4256    997.89115    29.202887    29.202887    29.202887   -6542.1287 
   24660    317.25542    83.944361   -6642.2345   -6558.2902    24903.089    1067.0099    972.53504    1144.8619    1083.6329    29.202346    29.202346    29.202346   -6541.7053 
   24670    314.40392    83.189868   -6641.6076   -6558.4177    24901.794     1105.265    916.80979    1163.0029    1235.9821     29.20184     29.20184     29.20184   -6541.2391 
   24680    309.05751     81.77523   -6640.3359   -6558.5606     24900.59    1148.1515    862.01724    1185.8689    1396.5684    29.201369    29.201369    29.201369   -6540.7164 
   24690    304.49909    80.569093   -6639.2616   -6558.6925    24899.482    1232.5809    901.83016    1248.7339    1547.1786    29.200936    29.200936    29.200936   -6539.5369 
   24700    303.33729    80.261687   -6639.0552   -6558.7935    24898.477    1350.7042    1049.2049    1342.5421    1660.3656    29.200543    29.200543    29.200543    -6537.803 
   24710    305.89011    80.937151   -6639.7978   -6558.8606    24897.584    1410.0729    1192.6292    1396.3823    1641.2074    29.200194    29.200194    29.200194   -6536.9483 
   24720    310.19329    82.075754   -6640.9832   -6558.9075     24896.81    1393.6662    1263.2409     1395.378    1522.3796    29.199891    29.199891    29.199891   -6537.2508 
   24730     313.3848    82.920214   -6641.8756   -6558.9554    24896.152    1371.8409    1293.3971    1388.1666    1433.9589    29.199634    29.199634    29.199634   -6537.6384 
   24740    313.52072    82.956178   -6641.9768   -6559.0207     24895.61    1387.4426    1311.1184    1413.3045     1437.905    29.199422    29.199422    29.199422   -6537.4617 
   24750    310.63768    82.193337   -6641.2975   -6559.1042    24895.186    1427.3716    1300.2024    1482.4627    1499.4497    29.199256    29.199256    29.199256   -6536.9252 
   24760    306.83713    81.187729     -6640.38   -6559.1923    24894.882    1447.1224    1239.6242    1553.1745    1548.5687    29.199137    29.199137    29.199137   -6536.7067 
   24770    304.74961     80.63538   -6639.9029   -6559.2675      24894.7    1423.2172    1168.5341    1552.0792    1549.0383    29.199066    29.199066    29.199066   -6537.1535 
   24780    305.71341    80.890399   -6640.2109   -6559.3205    24894.638    1365.8512    1126.8465     1462.289    1508.4182    29.199042    29.199042    29.199042   -6538.0979 
   24790    308.97265    81.752779   -6641.1086   -6559.3558    24894.693    1330.4791    1138.1303    1360.8078    1492.4992    29.199063    29.199063    29.199063   -6538.6828 
   24800    312.09483    82.578892   -6641.9677   -6559.3888    24894.861    1343.7924    1188.1871    1304.6746    1538.5156    29.199129    29.199129    29.199129   -6538.5088 
   24810      312.794    82.763889      -6642.2   -6559.4361    24895.144     1382.637    1251.0847    1293.6697    1603.1565     29.19924     29.19924     29.19924   -6537.9523 
   24820    310.53049    82.164974    -6641.669   -6559.5041    24895.545    1401.1905    1302.7994    1306.9713    1593.8007    29.199397    29.199397    29.199397   -6537.7316 
   24830    306.81172    81.181005   -6640.7658   -6559.5848    24896.065    1393.2029    1338.4302    1349.0745    1492.1039      29.1996      29.1996      29.1996    -6537.936 
   24840    304.01495    80.440992   -6640.1036   -6559.6626    24896.705    1371.0347    1359.5038    1387.4369    1366.1634     29.19985     29.19985     29.19985   -6538.3577 
   24850    303.81228    80.387366   -6640.1113   -6559.7239    24897.463     1321.056    1321.8715    1369.2559    1272.0405    29.200146    29.200146    29.200146    -6539.195 
   24860    306.25679    81.034174   -6640.7995   -6559.7654    24898.334    1216.6844    1197.1469    1247.2308    1205.6757    29.200487    29.200487    29.200487   -6540.8577 
   24870    309.93323    82.006942   -6641.8026   -6559.7956     24899.31    1104.4765    1076.2649    1066.6913    1170.4733    29.200869    29.200869    29.200869   -6542.6311 
   24880    312.80752    82.767467   -6642.5999   -6559.8324    24900.382    1051.9614    1040.7891     948.8361    1166.2591    29.201288    29.201288    29.201288   -6543.4833 
   24890    313.04919    82.831412   -6642.7245   -6559.8931    24901.546    1038.5588    1041.6504    918.59818    1155.4279    29.201743    29.201743    29.201743   -6543.7515 
   24900    310.08412    82.046868   -6642.0298   -6559.9829    24902.801    1020.1555    1010.7975    924.44408    1125.2248    29.202233    29.202233    29.202233   -6544.1265 
   24910    305.17765    80.748639   -6640.8375   -6560.0888    24904.145    988.99143    945.21704    951.60539    1070.1518    29.202759    29.202759    29.202759    -6544.716 
   24920    300.93393     79.62577   -6639.8109   -6560.1851    24905.576    947.65013    852.80307     1007.715    982.43235    29.203318    29.203318    29.203318   -6545.4541 
   24930    299.64897    79.285774   -6639.5329   -6560.2471     24907.09    880.03698    723.54217    1040.4947    876.07407     29.20391     29.20391     29.20391   -6546.5663 
   24940    301.77754    79.848983   -6640.1118   -6560.2628    24908.681    767.45238    560.58474    979.77604    761.99637    29.204532    29.204532    29.204532   -6548.3314 
   24950    305.86725    80.931103   -6641.1673   -6560.2362    24910.341    656.03667     438.9695    841.11712    688.02339     29.20518     29.20518     29.20518   -6550.0363 
   24960    309.50459    81.893527   -6642.0764   -6560.1829    24912.061     559.7069    369.53149    662.79315    646.79606    29.205852    29.205852    29.205852   -6551.4801 
   24970    310.74498    82.221727   -6642.3413   -6560.1196    24913.831    462.44154    329.05249    478.87598    579.39613    29.206544    29.206544    29.206544   -6552.9287 
   24980    309.26162    81.829238   -6641.8825   -6560.0533    24915.645    375.11088    327.40981     314.6191    483.30374    29.207253    29.207253    29.207253   -6554.2199 
   24990    306.41854    81.076971   -6641.0545   -6559.9775    24917.494    296.25288    346.19308     176.4329    366.13267    29.207975    29.207975    29.207975   -6555.3701 
   25000    304.26609    80.507444   -6640.3855    -6559.878    24919.372    217.85414    338.11189    87.581019    227.86951    29.208709    29.208709    29.208709   -6556.4896 
Loop time of 359.098 on 1 procs for 25000 steps with 2048 atoms

Pair  time (%) = 344.821 (96.0241)
Neigh time (%) = 9.44443 (2.63004)
Comm  time (%) = 1.29349 (0.360204)
Outpt time (%) = 0.0951128 (0.0264866)
Other time (%) = 3.44418 (0.95912)

Nlocal:    2048 ave 2048 max 2048 min
Histogram: 1 0 0 0 0 0 0 0 0 0
Nghost:    5765 ave 5765 max 5765 min
Histogram: 1 0 0 0 0 0 0 0 0 0
Neighs:    177113 ave 177113 max 177113 min
Histogram: 1 0 0 0 0 0 0 0 0 0

Total # of neighbors = 177113
Ave neighs/atom = 86.481
Neighbor list builds = 1250
Dangerous builds = 0
