LAMMPS (6 Apr 2015)
Created orthogonal box = (0 0 0) to (8 8 8)
  1 by 1 by 1 MPI processor grid
Created 250 atoms
Created 250 atoms
Neighbor list info ...
  1 neighbor list requests
  update every 20 steps, delay 0 steps, check no
  master list distance cutoff = 4.3
Setting up run ...
Memory usage per processor = 2.1412 Mbytes
Step Temp KinEng PotEng TotEng Volume Press Pxx Pyy Pzz Lx Ly Lz Enthalpy 
       0          0.1       0.1497 2.7225591e+09 2.7225591e+09          512 1.0635022e+10 2.0243645e+10 3.480114e+09 8.181307e+09            8            8            8 1.3612821e+10 
    1000     1073.385    1606.8574      197.394    1804.2514          512    1914.0888    1835.5899    1858.0743    2048.6023            8            8            8    3764.2784 
    2000     1083.795    1622.4412    249.14906    1871.5902          512    2130.6991    2206.2661    2080.0563    2105.7749            8            8            8    4053.4261 
    3000    1063.8797    1592.6279    216.26464    1808.8925          512    1980.0959    1897.7854    1994.8145     2047.688            8            8            8    3836.5108 
    4000     1092.437    1635.3781    236.62624    1872.0044          512      2090.07    1981.8829    2141.2246    2147.1025            8            8            8     4012.236 
    5000    1031.5956    1544.2985    207.16762    1751.4662          512    1911.4916    1813.0874    1961.0619    1960.3255            8            8            8    3708.8336 
    6000    1046.5303    1566.6559    232.11143    1798.7673          512    2026.7017    1893.4487    2050.2556    2136.4009            8            8            8    3874.1099 
    7000    1031.3531    1543.9356    259.02663    1802.9622          512    2120.9512     2227.654    2015.8584    2119.3411            8            8            8    3974.8162 
    8000    1020.5342    1527.7396    251.71409    1779.4537          512    2078.9551    2121.6863    2092.9523    2022.2265            8            8            8    3908.3037 
    9000    1015.2989    1519.9025    225.20665    1745.1091          512    1966.3973    2120.0871     1737.068     2042.037            8            8            8       3758.7 
   10000     1019.048    1525.5149    241.67932    1767.1942          512    2037.9275     1937.371    2310.7041    1865.7074            8            8            8     3854.032 
Loop time of 23.0729 on 1 procs for 10000 steps with 500 atoms

Pair  time (%) = 20.3406 (88.1581)
Neigh time (%) = 2.20944 (9.57594)
Comm  time (%) = 0.373799 (1.62008)
Outpt time (%) = 0.000172377 (0.000747097)
Other time (%) = 0.148844 (0.645102)

Nlocal:    500 ave 500 max 500 min
Histogram: 1 0 0 0 0 0 0 0 0 0
Nghost:    3966 ave 3966 max 3966 min
Histogram: 1 0 0 0 0 0 0 0 0 0
Neighs:    81030 ave 81030 max 81030 min
Histogram: 1 0 0 0 0 0 0 0 0 0

Total # of neighbors = 81030
Ave neighs/atom = 162.06
Neighbor list builds = 500
Dangerous builds = 0
Setting up run ...
Memory usage per processor = 2.1412 Mbytes
Step Temp KinEng PotEng TotEng Volume Press Pxx Pyy Pzz Lx Ly Lz Enthalpy 
   10000     1019.048    1525.5149    241.67932    1767.1942          512    2037.9275     1937.371    2310.7041    1865.7074            8            8            8     3854.032 
   11000    0.4134351   0.61891234   -10.473141    -9.854229          512    2.0405492    2.3382049    1.7773581    2.0060845            8            8            8   -7.7647067 
   12000   0.10429388   0.15612794   -11.219931   -11.063803          512   -1.6479371   -1.4829549   -1.9843453    -1.476511            8            8            8    -12.75129 
   13000  0.063078698  0.094428811   -11.404493   -11.310064          512   -2.3310437   -2.3950906   -2.4568236   -2.1412169            8            8            8   -13.697053 
   14000  0.056111204  0.083998473   -11.481794   -11.397795          512   -2.6275154   -2.6183239   -2.7330653   -2.5311569            8            8            8   -14.088371 
   15000  0.070810803   0.10600377   -11.513042   -11.407038          512   -2.4895352   -2.5386234   -2.6219657   -2.3080166            8            8            8   -13.956322 
   16000   0.10486025   0.15697579   -11.504613   -11.347637          512   -2.1750343   -2.4037422    -2.122577   -1.9987838            8            8            8   -13.574872 
   17000   0.12606384   0.18871757   -11.482329   -11.293612          512   -1.9896868   -1.8986219   -2.1468491   -1.9235894            8            8            8   -13.331051 
   18000   0.12072076   0.18071898   -11.524853   -11.344134          512   -2.0942045   -2.2160197   -2.1437474   -1.9228465            8            8            8     -13.4886 
   19000  0.094782708   0.14188971   -11.583784   -11.441894          512   -2.3699117   -2.6929459   -2.4992499   -1.9175394            8            8            8   -13.868684 
   20000  0.073124833   0.10946788   -11.613177   -11.503709          512   -2.5941159   -2.8831235   -2.7047652   -2.1944589            8            8            8   -14.160084 
   21000   0.07773713   0.11637248   -11.621384   -11.505012          512    -2.625833   -2.8461726   -2.6288014   -2.4025251            8            8            8   -14.193865 
   22000   0.10532701   0.15767453   -11.608934   -11.451259          512    -2.503725   -2.3811162    -2.661509   -2.4685497            8            8            8   -14.015074 
   23000   0.12766058   0.19110789    -11.59692   -11.405812          512   -2.0977329   -2.2535364   -2.1293461   -1.9103161            8            8            8   -13.553891 
   24000        0.118     0.176646   -11.626184   -11.449538          512    -2.376682   -2.3600464   -2.2014737    -2.568526            8            8            8   -13.883261 
   25000   0.10784388   0.16144229   -11.701627   -11.540185          512   -2.5976789   -2.5491646   -2.4362236   -2.8076484            8            8            8   -14.200208 
   26000  0.081055173   0.12133959   -11.733876   -11.612537          512   -2.8130368   -2.7031378   -2.9069243   -2.8290482            8            8            8   -14.493086 
   27000  0.082081058   0.12287534    -11.76239   -11.639514          512   -2.9630443   -3.0492355   -2.8674531   -2.9724441            8            8            8   -14.673672 
   28000  0.089406638   0.13384174   -11.760339   -11.626497          512   -2.7056925    -2.714958   -2.6695747   -2.7325447            8            8            8   -14.397126 
   29000   0.10404768   0.15575937   -11.745225   -11.589465          512   -2.7005367   -2.5527841    -2.731871   -2.8169549            8            8            8   -14.354815 
   30000    0.1112784   0.16658377   -11.731664   -11.565081          512   -2.4914951    -2.284754   -2.6316508   -2.5580806            8            8            8   -14.116372 
Loop time of 41.285 on 1 procs for 20000 steps with 500 atoms

Pair  time (%) = 36.4979 (88.4046)
Neigh time (%) = 3.74041 (9.05996)
Comm  time (%) = 0.667845 (1.61764)
Outpt time (%) = 0.000317574 (0.000769222)
Other time (%) = 0.378602 (0.917044)

Nlocal:    500 ave 500 max 500 min
Histogram: 1 0 0 0 0 0 0 0 0 0
Nghost:    3938 ave 3938 max 3938 min
Histogram: 1 0 0 0 0 0 0 0 0 0
Neighs:    80703 ave 80703 max 80703 min
Histogram: 1 0 0 0 0 0 0 0 0 0

Total # of neighbors = 80703
Ave neighs/atom = 161.406
Neighbor list builds = 1000
Dangerous builds = 0
Setting up run ...
Memory usage per processor = 2.1412 Mbytes
Step Temp KinEng PotEng TotEng Volume Press Pxx Pyy Pzz Lx Ly Lz Enthalpy 
   30000    0.1112784   0.16658377   -11.731664   -11.565081          512   -2.4914951    -2.284754   -2.6316508   -2.5580806            8            8            8   -14.116372 
   31000   0.12191686   0.18250954   -11.738813   -11.556303          512   -2.5420366   -2.3360893   -2.5409534   -2.7490671            8            8            8   -14.159349 
   32000   0.13582893    0.2033359    -11.71858   -11.515244          512   -2.2078765    -2.187215   -2.0919608   -2.3444538            8            8            8    -13.77611 
   33000   0.16724127   0.25036018   -11.696069   -11.445709          512   -2.0748955   -2.1356145   -2.0611402   -2.0279318            8            8            8   -13.570402 
   34000   0.19375099   0.29004524    -11.63902   -11.348975          512     -1.84799   -1.7088662   -1.9034658    -1.931638            8            8            8   -13.241317 
   35000   0.24486284   0.36655968   -11.588223   -11.221663          512   -1.4599291   -1.1995212   -1.6913478   -1.4889184            8            8            8   -12.716631 
   36000   0.29558643   0.44249289   -11.498999   -11.056506          512  -0.93544228  -0.64655958  -0.78107507   -1.3786922            8            8            8   -12.014399 
   37000   0.38435609   0.57538107   -11.427131    -10.85175          512  -0.43875515  -0.29357016  -0.29907849  -0.72361678            8            8            8   -11.301035 
   38000   0.48371046   0.72411456   -11.327482   -10.603368          512  0.032230274   0.18137084  0.060880584   -0.1455606            8            8            8   -10.570364 
   39000   0.59337653   0.88828466   -11.204706   -10.316421          512   0.97217225     1.257846   0.82610282   0.83256794            8            8            8   -9.3209166 
   40000   0.66911147    1.0016599   -11.000226   -9.9985657          512    1.9763263    1.8681855    1.9111492    2.1496441            8            8            8   -7.9748076 
   41000   0.81745496    1.2237301   -10.888071   -9.6643408          512    3.0019678    3.1256349    3.3709686    2.5093001            8            8            8   -6.5903257 
   42000   0.89502339      1.33985   -10.688372   -9.3485223          512    3.9455086    3.9354682    4.3299205    3.5711371            8            8            8   -5.3083215 
   43000   0.99494277    1.4894293   -10.567439   -9.0780096          512    4.8444529    4.9240251    4.3295542    5.2797792            8            8            8   -4.1172898 
   44000    1.1086883    1.6597064   -10.515267   -8.8555608          512    5.3504895    5.2773072    5.2029255    5.5712359            8            8            8   -3.3766595 
   45000    1.1035783    1.6520567   -10.316797   -8.6647399          512    6.5388075    5.7168592    7.1840755    6.7154878            8            8            8    -1.969001 
   46000    1.2188169    1.8245688   -10.266483   -8.4419137          512    6.7543305    7.0206298    7.0859213    6.1564403            8            8            8   -1.5254793 
   47000    1.2424383    1.8599302   -10.100546   -8.2406157          512    7.7546297    8.3187671    7.8565277    7.0885943            8            8            8  -0.29987496 
   48000    1.3930009    2.0853223    -10.16624   -8.0809177          512    7.9366534    7.7047589    8.8366152    7.2685861            8            8            8  0.046215424 
   49000    1.4237701    2.1313838   -10.040708   -7.9093243          512    8.6299628    8.5844305    8.8877734    8.4176845            8            8            8   0.92775758 
   50000    1.4922232    2.2338581   -9.9425252   -7.7086671          512     9.265921    8.5894665    9.4610101    9.7472864            8            8            8     1.779636 
Loop time of 41.2279 on 1 procs for 20000 steps with 500 atoms

Pair  time (%) = 36.4397 (88.3861)
Neigh time (%) = 3.74752 (9.08978)
Comm  time (%) = 0.662192 (1.60618)
Outpt time (%) = 0.000306129 (0.00074253)
Other time (%) = 0.378164 (0.917252)

Nlocal:    500 ave 500 max 500 min
Histogram: 1 0 0 0 0 0 0 0 0 0
Nghost:    3918 ave 3918 max 3918 min
Histogram: 1 0 0 0 0 0 0 0 0 0
Neighs:    80918 ave 80918 max 80918 min
Histogram: 1 0 0 0 0 0 0 0 0 0

Total # of neighbors = 80918
Ave neighs/atom = 161.836
Neighbor list builds = 1000
Dangerous builds = 0
Neighbor list info ...
  2 neighbor list requests
  update every 20 steps, delay 0 steps, check no
  master list distance cutoff = 4.3
Setting up run ...
Memory usage per processor = 3.41027 Mbytes
Step Temp KinEng PotEng TotEng Volume Press Pxx Pyy Pzz Lx Ly Lz Enthalpy 
       0    1.4922232    2.2338581   -9.9425252   -7.7086671          512     9.265921    8.5894665    9.4610101    9.7472864            8            8            8     1.779636 
    1000    1.4808909    2.2168936   -9.9041477   -7.6872541          512    9.7150747    8.6876686    9.2152418    11.242314            8            8            8    2.2609824 
    2000    1.5268816    2.2857418   -9.8380832   -7.5523414          512    10.043299    10.772194    9.9167917    9.4409113            8            8            8    2.7319968 
    3000    1.6013759    2.3972597   -9.7934562   -7.3961965          512    10.521906    10.724098    10.285562    10.556057            8            8            8    3.3782351 
    4000    1.5501308    2.3205458   -9.8388854   -7.5183396          512    10.140235    10.375208    10.026193    10.019305            8            8            8    2.8652614 
    5000    1.5461646    2.3146084   -9.9597859   -7.6451775          512    9.6030326    10.128547    8.9332491     9.747302            8            8            8    2.1883279 
    6000    1.5439674    2.3113192   -10.016874   -7.7055549          512    9.9506135    9.8647644    10.465062    9.5220137            8            8            8    2.4838733 
    7000    1.4969417    2.2409217   -10.028873   -7.7879513          512    9.8050876    9.9782441    9.3619511    10.075068            8            8            8    2.2524585 
    8000    1.4633858    2.1906885   -10.078752   -7.8880636          512    9.4123708    8.8754797    10.249528    9.1121045            8            8            8    1.7502041 
    9000    1.4650286    2.1931478   -10.191678   -7.9985304          512    8.8793747     7.615163    9.3850312    9.6379298            8            8            8    1.0939492 
   10000    1.4960913    2.2396486   -10.195296   -7.9556478          512    9.0819381    9.1536186    8.6083794    9.4838165            8            8            8    1.3442569 
   11000    1.4948392    2.2377742    -9.992669   -7.7548948          512    10.044527    9.4675485    10.437195    10.228839            8            8            8    2.5307011 
   12000    1.5296864    2.2899406   -10.015586   -7.7256458          512    10.280655    10.441021    10.972269    9.4286749            8            8            8    2.8017449 
   13000    1.5197884    2.2751233   -10.120556    -7.845433          512    9.9106779    10.285123    9.5120427    9.9348681            8            8            8    2.3031012 
   14000    1.4769516    2.2109965   -10.173775   -7.9627784          512    10.110012    10.031241    10.074488    10.224307            8            8            8    2.3898739 
   15000    1.5303029    2.2908634   -10.345825   -8.0549614          512    8.9515969    8.7717312    9.1607749    8.9222845            8            8            8    1.1114738 
   16000    1.3914499    2.0830005   -10.140387   -8.0573866          512    10.052785    9.8075614    10.428166    9.9226291            8            8            8    2.2366657 
   17000    1.5957976     2.388909   -10.282394   -7.8934854          512    10.032681    9.0686355    10.414725    10.614682            8            8            8      2.37998 
   18000    1.5582207    2.3326564   -10.238919   -7.9062626          512    10.114771    10.811842    9.6429925    9.8894772            8            8            8    2.4512626 
   19000    1.5038934    2.2513285   -10.342028   -8.0906995          512    9.5007543    9.0728485    10.290748    9.1386659            8            8            8    1.6380729 
   20000    1.5322098     2.293718   -10.455603   -8.1618851          512    9.3213812    9.1103659    10.030684    8.8230933            8            8            8    1.3832093 
   21000    1.5146621    2.2674491   -10.435264   -8.1678148          512    9.4917838    9.8970937    9.6086895    8.9695683            8            8            8    1.5517719 
   22000    1.5302997    2.2908586   -10.516346   -8.2254869          512    9.5411626    10.053846     9.255791    9.3138507            8            8            8    1.5446636 
   23000     1.462115    2.1887862   -10.577813   -8.3890272          512    9.2789807     9.870137    8.8491525    9.1176526            8            8            8     1.112649 
   24000     1.381757    2.0684903    -10.52472   -8.4562295          512    9.7996327    10.229742    9.5610602     9.608096            8            8            8    1.5785944 
   25000    1.4790355    2.2141161   -10.575984   -8.3618674          512    9.4974483    9.4780424    9.7959437     9.218359            8            8            8    1.3635197 
   26000    1.4676883    2.1971294    -10.34096   -8.1438307          512    10.696037     10.47592    11.931271    9.6809208            8            8            8    2.8089117 
   27000    1.5015952    2.2478881   -10.423497   -8.1756092          512    10.587232    10.791042    10.271104     10.69955            8            8            8    2.6657163 
   28000    1.5189203    2.2738237   -10.591694   -8.3178705          512    10.201299    10.115047    10.606768    9.8820834            8            8            8      2.12826 
   29000    1.4726287    2.2045252   -10.613398   -8.4088725          512    10.256651    9.9291322     10.17858    10.662241            8            8            8    2.0939385 
   30000    1.4985048    2.2432616   -10.689543   -8.4462812          512    9.7521247    10.335742    9.4753922    9.4452397            8            8            8    1.5398944 
   31000    1.4801984    2.2158571   -10.707634   -8.4917767          512    9.8986976    10.193504    9.7631584    9.7394302            8            8            8    1.6444897 
   32000    1.4478915    2.1674936   -10.882461   -8.7149675          512    9.0672864    9.2254255    9.3966196     8.579814            8            8            8   0.56993374 
   33000    1.4532736    2.1755506   -10.906529   -8.7309787          512    9.1722853    9.6798598    9.4072983    8.4296977            8            8            8   0.66144135 
   34000    1.5018041    2.2482008   -10.844339   -8.5961382          512    9.6198758    10.220514      8.97972    9.6593934            8            8            8    1.2546146 
   35000    1.4666653    2.1955979   -10.727198   -8.5316001          512    10.177819    10.751486    10.489787    9.2921833            8            8            8    1.8904861 
   36000    1.4794898    2.2147962   -10.727552   -8.5127557          512    9.9329319    10.207643    9.5358429    10.055309            8            8            8    1.6585665 
   37000    1.4704114    2.2012059   -10.710383   -8.5091772          512    10.069172    10.377282    9.2415882    10.588645            8            8            8    1.8016547 
   38000    1.5396211    2.3048128   -10.752718   -8.4479057          512    9.9094961    9.9906028     9.703886       10.034            8            8            8    1.6994184 
   39000    1.5310166    2.2919318   -10.742167   -8.4502354          512    9.7335059     9.184986    9.9264583    10.089073            8            8            8    1.5168746 
   40000    1.5031599    2.2502304   -10.863575   -8.6133442          512    9.5883836    10.319988    8.5322653    9.9128975            8            8            8    1.2051606 
   41000    1.4744602     2.207267   -10.924313   -8.7170463          512    9.0580043     9.112395    9.8974933    8.1641245            8            8            8   0.55835012 
   42000    1.4511397    2.1723561   -10.872541   -8.7001844          512    9.3079039    9.8837338    8.9927354    9.0472425            8            8            8   0.83110917 
   43000    1.4833197    2.2205296   -10.732456   -8.5119261          512       10.003    10.141022    9.2976348    10.570342            8            8            8    1.7311457 
   44000    1.5440604    2.3114584   -10.716305   -8.4048462          512    9.8890392    9.7141623    10.666803    9.2861524            8            8            8      1.72153 
   45000    1.6244439    2.4317926   -10.870224   -8.4384315          512    9.5489177    8.5027225    11.113679    9.0303514            8            8            8    1.3396603 
   46000    1.5681354    2.3474987   -10.906516   -8.5590175          512    9.1328945     8.864457    9.3475516    9.1866748            8            8            8   0.79306649 
   47000    1.4632811    2.1905318   -10.849613   -8.6590808          512    9.6485615    9.1762802     9.132089    10.637315            8            8            8    1.2210462 
   48000    1.4387371    2.1537895   -10.800592    -8.646802          512    10.070198    10.574643    10.187868    9.4480847            8            8            8    1.6650811 
   49000    1.4945432    2.2373312   -10.858859   -8.6215279          512    9.4353377     9.844235    9.4164824    9.0452958            8            8            8     1.040258 
   50000    1.4972364    2.2413629   -10.862375   -8.6210126          512    9.6916293    9.9624743      9.62849    9.4839236            8            8            8    1.3032159 
   51000    1.4989128    2.2438725   -10.869803   -8.6259301          512    9.3145869    9.4836552    9.4481232    9.0119824            8            8            8    0.9122069 
   52000    1.4939448    2.2364354     -10.8721   -8.6356643          512     9.664956    10.294516    9.0104367    9.6899147            8            8            8    1.2612505 
   53000    1.4857108    2.2241091   -10.898688   -8.6745794          512    9.6424238    9.3445972    10.356635    9.2260392            8            8            8    1.1992627 
   54000    1.4656233     2.194038    -10.87287   -8.6788316          512    9.6960668    8.7595679     9.795417    10.533215            8            8            8    1.2499408 
   55000    1.5068003    2.2556801   -10.832769   -8.5770885          512    10.220572    9.1472952    10.842417    10.672005            8            8            8    1.8887774 
   56000    1.5810934    2.3668968   -10.880961   -8.5140645          512    10.156608    10.968844    9.3663209    10.134659            8            8            8    1.8863021 
   57000    1.5824163    2.3688772   -11.050316   -8.6814389          512    9.3889845    9.0614764    8.8699095    10.235568            8            8            8   0.93288126 
   58000    1.4797579    2.2151976   -11.039215   -8.8240171          512    9.3805616    8.7705765    10.414005    8.9571038            8            8            8   0.78167803 
   59000    1.5401221    2.3055627   -11.146039    -8.840476          512    8.8292161    8.6530773     8.622929     9.211642            8            8            8   0.20064134 
   60000    1.4660129    2.1946213   -10.955608   -8.7609864          512     9.421642     9.261897    10.231437    8.7715923            8            8            8   0.88677503 
   61000    1.5573125    2.3312968   -10.908337   -8.5770398          512     9.916477    11.208087    8.8129057    9.7284388            8            8            8    1.5774326 
   62000    1.5879014    2.3770884   -10.960061   -8.5829729          512    10.202935    10.737393    10.284196    9.5872163            8            8            8    1.8648325 
   63000    1.5069826     2.255953   -10.931619    -8.675666          512    10.528793     10.69451    10.367787    10.524083            8            8            8    2.1058183 
   64000    1.4617614    2.1882569   -10.937965   -8.7497085          512    10.173736     9.325148    11.310639    9.8854217            8            8            8    1.6681974 
   65000    1.3921649    2.0840708   -10.909116   -8.8250448          512    10.214106     10.23577    9.9177939    10.488754            8            8            8    1.6341998 
   66000    1.4289667    2.1391631   -11.017089    -8.877926          512    9.2823921    8.3156526    10.018369    9.5131547            8            8            8   0.62724349 
   67000    1.3961081    2.0899738   -10.998023   -8.9080487          512     9.424481    8.9858476    9.7064458    9.5811497            8            8            8   0.74261987 
   68000     1.446025    2.1646994   -10.969712   -8.8050126          512    9.9166572    10.286402    9.3830909    10.080479            8            8            8    1.3496443 
   69000    1.5578913    2.3321633   -10.999259   -8.6670953          512    9.9330543    10.288275    8.8881139    10.622774            8            8            8    1.5043523 
   70000     1.517228    2.2712903   -10.954756   -8.6834656          512    9.7234192    9.2041153     10.64393    9.3222118            8            8            8    1.2733156 
   71000    1.4945294    2.2373104   -11.083745   -8.8464348          512    9.1132846    8.7344082    9.7306724    8.8747731            8            8            8   0.48556856 
   72000    1.3964924    2.0905491   -11.034694   -8.9441447          512    9.6164844    10.730456    8.1632143    9.9557828            8            8            8   0.90313534 
   73000    1.4365436    2.1505057   -11.034347   -8.8838418          512    9.4949085    9.8475467     9.018888    9.6182909            8            8            8   0.83894459 
   74000    1.4059375    2.1046884   -10.946613   -8.8419248          512    10.036409    10.535601    10.259045     9.314582            8            8            8    1.4353582 
   75000    1.5550433    2.3278998   -11.117889   -8.7899888          512    9.0315839     9.503816    9.5589196    8.0320162            8            8            8   0.45835317 
   76000    1.4698545    2.2003722   -10.986912   -8.7865398          512    10.025653    9.3989723    10.547856     10.13013            8            8            8    1.4797286 
   77000    1.5016139     2.247916    -11.17383   -8.9259144          512    9.2398783    11.233666     8.929327    7.5566423            8            8            8   0.53572093 
   78000    1.3549975    2.0284313   -11.054717   -9.0262862          512    9.5322765    9.6718573    9.4829418    9.4420304            8            8            8   0.73476498 
   79000    1.4671269    2.1962889   -11.072921   -8.8766316          512    9.6139438    9.2132053    10.225758    9.4028686            8            8            8   0.96804685 
   80000    1.4598785    2.1854381   -10.949396   -8.7639576          512     10.52714    10.582199     10.72729     10.27193            8            8            8    2.0158335 
   81000     1.407997    2.1077715   -10.879485   -8.7717133          512    10.816363    11.645383    10.740099    10.063606            8            8            8    2.3042419 
   82000    1.5565185    2.3301082   -11.184983   -8.8548747          512    9.2641763    10.181079     8.123545    9.4879047            8            8            8    0.6316418 
   83000    1.3684374    2.0485508   -11.068449   -9.0198977          512    9.5193389    9.9287757    9.2544353    9.3748058            8            8            8   0.72790536 
   84000    1.4952033    2.2383193    -11.29438   -9.0560604          512    8.8446916    10.362136    8.6949061    7.4770329            8            8            8 0.00090378891 
   85000    1.5024437    2.2491582   -11.137183   -8.8880244          512    9.6892564    9.8068907    10.377762    8.8831163            8            8            8    1.0337743 
   86000    1.5416659    2.3078738   -11.049701   -8.7418269          512    10.110998    10.196456    9.9144828    10.222056            8            8            8    1.6118352 
   87000    1.5374813    2.3016094   -11.074723   -8.7731132          512      9.74955    9.7793354    9.9881581    9.4811565            8            8            8     1.210426 
   88000    1.5886159     2.378158    -11.31354   -8.9353822          512    9.1760475    9.3723623    9.5873459    8.5684342            8            8            8   0.46089044 
   89000    1.4230324    2.1302796   -11.156175   -9.0258955          512    10.182361    10.439555    9.8041618    10.303365            8            8            8    1.4008418 
   90000    1.4456257    2.1641017   -11.176746   -9.0126444          512    10.207222    11.922221    9.4235424    9.2759033            8            8            8    1.4395511 
   91000    1.4639567    2.1915432   -11.168125   -8.9765819          512    10.312142    10.743086    10.131538    10.061802            8            8            8    1.5830511 
   92000    1.4682705    2.1980009   -11.118691   -8.9206903          512    10.634573    11.099014    11.093507    9.7111987            8            8            8    1.9691127 
   93000    1.5560784    2.3294494   -11.215567   -8.8861176          512    9.9113507     10.22167    8.8939352    10.618447            8            8            8    1.2631055 
   94000    1.5062297    2.2548259    -11.23427    -8.979444          512    9.8675115    10.605043    9.5209938    9.4764977            8            8            8    1.1248877 
   95000    1.4626252    2.1895499   -11.314084   -9.1245339          512    9.3732155    10.481866    9.1682136    8.4695665            8            8            8   0.47363879 
   96000    1.4599598    2.1855598     -11.3835   -9.1979398          512    9.2649652    9.8477967    8.1697858    9.7773132            8            8            8   0.28938456 
   97000    1.4832357    2.2204039   -11.346679   -9.1262749          512    9.9875284    10.591486    9.5032374    9.8678622            8            8            8    1.1009542 
   98000    1.5844144    2.3718684   -11.315245   -8.9433768          512    10.296757    11.252881    9.2737556    10.363634            8            8            8    1.6005023 
   99000    1.6046093    2.4021002   -11.340111   -8.9380109          512    10.097644    10.834299    9.5965758    9.8620569            8            8            8    1.4019765 
  100000    1.4797435     2.215176   -11.422719   -9.2075429          512    9.3887146    8.9829425    9.1349876    10.048214            8            8            8   0.40650089 
Loop time of 208.067 on 1 procs for 100000 steps with 500 atoms

Pair  time (%) = 183.512 (88.1983)
Neigh time (%) = 19.0586 (9.15984)
Comm  time (%) = 3.35629 (1.61308)
Outpt time (%) = 0.0043447 (0.00208812)
Other time (%) = 2.13618 (1.02667)

Nlocal:    500 ave 500 max 500 min
Histogram: 1 0 0 0 0 0 0 0 0 0
Nghost:    3950 ave 3950 max 3950 min
Histogram: 1 0 0 0 0 0 0 0 0 0
Neighs:    80860 ave 80860 max 80860 min
Histogram: 1 0 0 0 0 0 0 0 0 0

Total # of neighbors = 80860
Ave neighs/atom = 161.72
Neighbor list builds = 5000
Dangerous builds = 0
