ITEM: TIMESTEP
10
ITEM: NUMBER OF ATOMS
5128
ITEM: BOX BOUNDS pp pp pp
-16.16 16.16
-16.16 16.16
-52.52 52.52
ITEM: ATOMS id type xs ys zs
1 5 1 1 0.0384923
2 5 0.0625 0.0625 0.0384923
3 5 0.0625 1 0.0577658
4 5 1.73771e-10 0.0625 0.0577658
5 5 0.125 1 0.0384923
6 5 0.1875 0.0625 0.0384923
7 5 0.1875 1 0.0577658
8 5 0.125 0.0625 0.0577658
33 5 1.61186e-10 0.125 0.0384923
34 5 0.0625 0.1875 0.0384923
35 5 0.0625 0.125 0.0577658
36 5 1.51973e-10 0.1875 0.0577658
37 5 0.125 0.125 0.0384923
38 5 0.1875 0.1875 0.0384923
39 5 0.1875 0.125 0.0577658
40 5 0.125 0.1875 0.0577658
9 5 0.25 1 0.0384923
10 5 0.3125 0.0625 0.0384923
11 5 0.3125 1 0.0577658
12 5 0.25 0.0625 0.0577658
13 5 0.375 1 0.0384923
14 5 0.4375 0.0625 0.0384923
15 5 0.4375 1 0.0577658
16 5 0.375 0.0625 0.0577658
41 5 0.25 0.125 0.0384923
42 5 0.3125 0.1875 0.0384923
43 5 0.3125 0.125 0.0577658
44 5 0.25 0.1875 0.0577658
45 5 0.375 0.125 0.0384923
46 5 0.4375 0.1875 0.0384923
47 5 0.4375 0.125 0.0577658
48 5 0.375 0.1875 0.0577658
17 5 0.5 1 0.0384923
18 5 0.5625 0.0625 0.0384923
19 5 0.5625 5.94161e-10 0.0577658
20 5 0.5 0.0625 0.0577658
21 5 0.625 2.13325e-10 0.0384923
22 5 0.6875 0.0625 0.0384923
23 5 0.6875 1 0.0577658
24 5 0.625 0.0625 0.0577658
49 5 0.5 0.125 0.0384923
50 5 0.5625 0.1875 0.0384923
51 5 0.5625 0.125 0.0577658
52 5 0.5 0.1875 0.0577658
53 5 0.625 0.125 0.0384923
54 5 0.6875 0.1875 0.0384923
55 5 0.6875 0.125 0.0577658
56 5 0.625 0.1875 0.0577658
25 5 0.75 1 0.0384923
26 5 0.8125 0.0625 0.0384923
27 5 0.8125 1 0.0577658
28 5 0.75 0.0625 0.0577658
29 5 0.875 1 0.0384923
30 5 0.9375 0.0625 0.0384923
31 5 0.9375 1 0.0577658
32 5 0.875 0.0625 0.0577658
57 5 0.75 0.125 0.0384923
58 5 0.8125 0.1875 0.0384923
59 5 0.8125 0.125 0.0577658
60 5 0.75 0.1875 0.0577658
61 5 0.875 0.125 0.0384923
62 5 0.9375 0.1875 0.0384923
63 5 0.9375 0.125 0.0577658
64 5 0.875 0.1875 0.0577658
65 5 1.86919e-10 0.25 0.0384923
66 5 0.0625 0.3125 0.0384923
67 5 0.0625 0.25 0.0577658
68 5 1.52114e-09 0.3125 0.0577658
69 5 0.125 0.25 0.0384923
70 5 0.1875 0.3125 0.0384923
71 5 0.1875 0.25 0.0577658
72 5 0.125 0.3125 0.0577658
97 5 2.91441e-10 0.375 0.0384923
98 5 0.0625 0.4375 0.0384923
99 5 0.0625 0.375 0.0577658
100 5 1 0.4375 0.0577658
101 5 0.125 0.375 0.0384923
102 5 0.1875 0.4375 0.0384923
103 5 0.1875 0.375 0.0577658
104 5 0.125 0.4375 0.0577658
73 5 0.25 0.25 0.0384923
74 5 0.3125 0.3125 0.0384923
75 5 0.3125 0.25 0.0577658
76 5 0.25 0.3125 0.0577658
77 5 0.375 0.25 0.0384923
78 5 0.4375 0.3125 0.0384923
79 5 0.4375 0.25 0.0577658
80 5 0.375 0.3125 0.0577658
105 5 0.25 0.375 0.0384923
106 5 0.3125 0.4375 0.0384923
107 5 0.3125 0.375 0.0577658
108 5 0.25 0.4375 0.0577658
109 5 0.375 0.375 0.0384923
110 5 0.4375 0.4375 0.0384923
111 5 0.4375 0.375 0.0577658
112 5 0.375 0.4375 0.0577658
81 5 0.5 0.25 0.0384923
82 5 0.5625 0.3125 0.0384923
83 5 0.5625 0.25 0.0577658
84 5 0.5 0.3125 0.0577658
85 5 0.625 0.25 0.0384923
86 5 0.6875 0.3125 0.0384923
87 5 0.6875 0.25 0.0577658
88 5 0.625 0.3125 0.0577658
113 5 0.5 0.375 0.0384923
114 5 0.5625 0.4375 0.0384923
115 5 0.5625 0.375 0.0577658
116 5 0.5 0.4375 0.0577658
117 5 0.625 0.375 0.0384923
118 5 0.6875 0.4375 0.0384923
119 5 0.6875 0.375 0.0577658
120 5 0.625 0.4375 0.0577658
89 5 0.75 0.25 0.0384923
90 5 0.8125 0.3125 0.0384923
91 5 0.8125 0.25 0.0577658
92 5 0.75 0.3125 0.0577658
93 5 0.875 0.25 0.0384923
94 5 0.9375 0.3125 0.0384923
95 5 0.9375 0.25 0.0577658
96 5 0.875 0.3125 0.0577658
121 5 0.75 0.375 0.0384923
122 5 0.8125 0.4375 0.0384923
123 5 0.8125 0.375 0.0577658
124 5 0.75 0.4375 0.0577658
125 5 0.875 0.375 0.0384923
126 5 0.9375 0.4375 0.0384923
127 5 0.9375 0.375 0.0577658
128 5 0.875 0.4375 0.0577658
129 5 1 0.5 0.0384923
130 5 0.0625 0.5625 0.0384923
131 5 0.0625 0.5 0.0577658
132 5 1 0.5625 0.0577658
133 5 0.125 0.5 0.0384923
134 5 0.1875 0.5625 0.0384923
135 5 0.1875 0.5 0.0577658
136 5 0.125 0.5625 0.0577658
161 5 1 0.625 0.0384923
162 5 0.0625 0.6875 0.0384923
163 5 0.0625 0.625 0.0577658
164 5 2.03336e-09 0.6875 0.0577658
165 5 0.125 0.625 0.0384923
166 5 0.1875 0.6875 0.0384923
167 5 0.1875 0.625 0.0577658
168 5 0.125 0.6875 0.0577658
137 5 0.25 0.5 0.0384923
138 5 0.3125 0.5625 0.0384923
139 5 0.3125 0.5 0.0577658
140 5 0.25 0.5625 0.0577658
141 5 0.375 0.5 0.0384923
142 5 0.4375 0.5625 0.0384923
143 5 0.4375 0.5 0.0577658
144 5 0.375 0.5625 0.0577658
169 5 0.25 0.625 0.0384923
170 5 0.3125 0.6875 0.0384923
171 5 0.3125 0.625 0.0577658
172 5 0.25 0.6875 0.0577658
173 5 0.375 0.625 0.0384923
174 5 0.4375 0.6875 0.0384923
175 5 0.4375 0.625 0.0577658
176 5 0.375 0.6875 0.0577658
145 5 0.5 0.5 0.0384923
146 5 0.5625 0.5625 0.0384923
147 5 0.5625 0.5 0.0577658
148 5 0.5 0.5625 0.0577658
149 5 0.625 0.5 0.0384923
150 5 0.6875 0.5625 0.0384923
151 5 0.6875 0.5 0.0577658
152 5 0.625 0.5625 0.0577658
177 5 0.5 0.625 0.0384923
178 5 0.5625 0.6875 0.0384923
179 5 0.5625 0.625 0.0577658
180 5 0.5 0.6875 0.0577658
181 5 0.625 0.625 0.0384923
182 5 0.6875 0.6875 0.0384923
183 5 0.6875 0.625 0.0577658
184 5 0.625 0.6875 0.0577658
153 5 0.75 0.5 0.0384923
154 5 0.8125 0.5625 0.0384923
155 5 0.8125 0.5 0.0577658
156 5 0.75 0.5625 0.0577658
157 5 0.875 0.5 0.0384923
158 5 0.9375 0.5625 0.0384923
159 5 0.9375 0.5 0.0577658
160 5 0.875 0.5625 0.0577658
185 5 0.75 0.625 0.0384923
186 5 0.8125 0.6875 0.0384923
187 5 0.8125 0.625 0.0577658
188 5 0.75 0.6875 0.0577658
189 5 0.875 0.625 0.0384923
190 5 0.9375 0.6875 0.0384923
191 5 0.9375 0.625 0.0577658
192 5 0.875 0.6875 0.0577658
193 5 4.86403e-11 0.75 0.0384923
194 5 0.0625 0.8125 0.0384923
195 5 0.0625 0.75 0.0577658
196 5 2.8981e-09 0.8125 0.0577658
197 5 0.125 0.75 0.0384923
198 5 0.1875 0.8125 0.0384923
199 5 0.1875 0.75 0.0577658
200 5 0.125 0.8125 0.0577658
225 5 7.15776e-11 0.875 0.0384923
226 5 0.0625 0.9375 0.0384923
227 5 0.0625 0.875 0.0577658
228 5 3.18363e-10 0.9375 0.0577658
229 5 0.125 0.875 0.0384923
230 5 0.1875 0.9375 0.0384923
231 5 0.1875 0.875 0.0577658
232 5 0.125 0.9375 0.0577658
201 5 0.25 0.75 0.0384923
202 5 0.3125 0.8125 0.0384923
203 5 0.3125 0.75 0.0577658
204 5 0.25 0.8125 0.0577658
205 5 0.375 0.75 0.0384923
206 5 0.4375 0.8125 0.0384923
207 5 0.4375 0.75 0.0577658
208 5 0.375 0.8125 0.0577658
233 5 0.25 0.875 0.0384923
234 5 0.3125 0.9375 0.0384923
235 5 0.3125 0.875 0.0577658
236 5 0.25 0.9375 0.0577658
237 5 0.375 0.875 0.0384923
238 5 0.4375 0.9375 0.0384923
239 5 0.4375 0.875 0.0577658
240 5 0.375 0.9375 0.0577658
209 5 0.5 0.75 0.0384923
210 5 0.5625 0.8125 0.0384923
211 5 0.5625 0.75 0.0577658
212 5 0.5 0.8125 0.0577658
213 5 0.625 0.75 0.0384923
214 5 0.6875 0.8125 0.0384923
215 5 0.6875 0.75 0.0577658
216 5 0.625 0.8125 0.0577658
241 5 0.5 0.875 0.0384923
242 5 0.5625 0.9375 0.0384923
243 5 0.5625 0.875 0.0577658
244 5 0.5 0.9375 0.0577658
245 5 0.625 0.875 0.0384923
246 5 0.6875 0.9375 0.0384923
247 5 0.6875 0.875 0.0577658
248 5 0.625 0.9375 0.0577658
217 5 0.75 0.75 0.0384923
218 5 0.8125 0.8125 0.0384923
219 5 0.8125 0.75 0.0577658
220 5 0.75 0.8125 0.0577658
221 5 0.875 0.75 0.0384923
222 5 0.9375 0.8125 0.0384923
223 5 0.9375 0.75 0.0577658
224 5 0.875 0.8125 0.0577658
249 5 0.75 0.875 0.0384923
250 5 0.8125 0.9375 0.0384923
251 5 0.8125 0.875 0.0577658
252 5 0.75 0.9375 0.0577658
253 5 0.875 0.875 0.0384923
254 5 0.9375 0.9375 0.0384923
255 5 0.9375 0.875 0.0577658
256 5 0.875 0.9375 0.0577658
257 5 1.74687e-08 1 0.0769233
258 5 0.0625 0.0625 0.0769233
259 5 0.0625 1 0.0960813
260 5 3.25786e-08 0.0624998 0.0960812
261 5 0.125 1 0.0769233
262 5 0.1875 0.0625 0.0769233
263 5 0.1875 1 0.0960813
264 5 0.125 0.0624999 0.0960812
289 5 2.96549e-09 0.125 0.0769233
290 5 0.0625 0.1875 0.0769233
291 5 0.0625001 0.125 0.0960811
292 5 4.06732e-08 0.1875 0.0960812
293 5 0.125 0.125 0.0769233
294 5 0.1875 0.1875 0.0769233
295 5 0.1875 0.125 0.0960813
296 5 0.125 0.1875 0.0960812
513 5 5.33379e-07 1 0.11536
514 5 0.0624996 0.0624991 0.115358
515 5 0.125 0.999998 0.11536
516 5 0.187502 0.0625013 0.115358
529 5 1 0.124999 0.115359
530 5 0.0625008 0.187502 0.115358
531 5 0.125001 0.125 0.115359
532 5 0.187502 0.187501 0.115359
265 5 0.25 9.31554e-11 0.0769233
266 5 0.3125 0.0625 0.0769233
267 5 0.3125 1 0.0960811
268 5 0.25 0.0625001 0.0960813
269 5 0.375 1 0.0769233
270 5 0.4375 0.0625 0.0769233
271 5 0.4375 1 0.0960811
272 5 0.375 0.0624999 0.096081
297 5 0.25 0.125 0.0769233
298 5 0.3125 0.1875 0.0769233
299 5 0.3125 0.125 0.0960811
300 5 0.25 0.1875 0.0960814
301 5 0.375 0.125 0.0769233
302 5 0.4375 0.1875 0.0769233
303 5 0.4375 0.125 0.096081
304 5 0.375 0.1875 0.0960811
517 5 0.249999 0.999999 0.115361
518 5 0.312498 0.0625003 0.115357
519 5 0.375001 0.999999 0.115359
520 5 0.437502 0.0624999 0.115357
533 5 0.249998 0.125 0.115362
534 5 0.312497 0.187501 0.115358
535 5 0.375 0.125 0.115357
536 5 0.4375 0.1875 0.115357
273 5 0.5 1 0.0769233
274 5 0.5625 0.0625 0.0769233
275 5 0.5625 2.0895e-08 0.0960813
276 5 0.5 0.0624999 0.0960812
277 5 0.625 1 0.0769233
278 5 0.6875 0.0625 0.0769233
279 5 0.6875 1.72864e-08 0.0960814
280 5 0.625 0.0624997 0.0960813
305 5 0.5 0.125 0.0769233
306 5 0.5625 0.1875 0.0769233
307 5 0.5625 0.125 0.0960811
308 5 0.5 0.1875 0.0960811
309 5 0.625 0.125 0.0769233
310 5 0.6875 0.1875 0.0769233
311 5 0.6875 0.125 0.0960811
312 5 0.625 0.1875 0.0960811
521 5 0.500001 1.78736e-07 0.115359
522 5 0.562501 0.0624986 0.115358
523 5 0.625001 7.50475e-07 0.115362
524 5 0.687499 0.0624971 0.115359
537 5 0.5 0.124998 0.11536
538 5 0.562501 0.1875 0.115357
539 5 0.625001 0.125 0.115359
540 5 0.687498 0.1875 0.115357
281 5 0.75 1 0.0769233
282 5 0.8125 0.0625 0.0769233
283 5 0.8125 1 0.0960813
284 5 0.75 0.0624996 0.0960813
285 5 0.875 1 0.0769233
286 5 0.9375 0.0625 0.0769233
287 5 0.9375 1 0.0960812
288 5 0.875 0.0625 0.0960812
313 5 0.75 0.125 0.0769233
314 5 0.8125 0.1875 0.0769233
315 5 0.8125 0.125 0.0960812
316 5 0.75 0.1875 0.096081
317 5 0.875 0.125 0.0769233
318 5 0.9375 0.1875 0.0769233
319 5 0.9375 0.125 0.0960812
320 5 0.875 0.1875 0.0960812
525 5 0.75 0.999999 0.115362
526 5 0.812499 0.0624994 0.115358
527 5 0.874999 0.999998 0.115359
528 5 0.937501 0.0625 0.115358
541 5 0.75 0.124999 0.115358
542 5 0.812503 0.187499 0.115358
543 5 0.874999 0.125001 0.115361
544 5 0.937498 0.187501 0.115358
321 5 2.38462e-08 0.25 0.0769233
322 5 0.0625 0.3125 0.0769234
323 5 0.0625 0.25 0.0960813
324 5 3.69782e-08 0.3125 0.0960815
325 5 0.125 0.25 0.0769233
326 5 0.1875 0.3125 0.0769233
327 5 0.1875 0.25 0.0960814
328 5 0.125 0.3125 0.0960815
353 5 1.80736e-08 0.375 0.0769234
354 5 0.0625 0.4375 0.0769234
355 5 0.0625 0.375 0.0960816
356 5 1 0.4375 0.0960815
357 5 0.125 0.375 0.0769234
358 5 0.1875 0.4375 0.0769233
359 5 0.1875 0.375 0.0960814
360 5 0.125 0.4375 0.0960814
545 5 9.43078e-07 0.250002 0.115361
546 5 0.0624991 0.312503 0.11536
547 5 0.124999 0.25 0.11536
548 5 0.1875 0.312501 0.115359
561 5 1.21147e-06 0.375 0.115363
562 5 0.0624996 0.437496 0.11536
563 5 0.124999 0.375 0.115363
564 5 0.187497 0.437497 0.115358
329 5 0.25 0.25 0.0769233
330 5 0.3125 0.3125 0.0769233
331 5 0.3125 0.25 0.0960813
332 5 0.25 0.3125 0.0960814
333 5 0.375 0.25 0.0769233
334 5 0.4375 0.3125 0.0769233
335 5 0.4375 0.25 0.0960812
336 5 0.375 0.3125 0.0960814
361 5 0.25 0.375 0.0769233
362 5 0.3125 0.4375 0.0769233
363 5 0.3125 0.375 0.0960813
364 5 0.25 0.4375 0.0960811
365 5 0.375 0.375 0.0769233
366 5 0.4375 0.4375 0.0769233
367 5 0.4375 0.375 0.0960813
368 5 0.375 0.4375 0.0960812
549 5 0.249999 0.25 0.115362
550 5 0.312501 0.3125 0.115359
551 5 0.374999 0.250003 0.11536
552 5 0.437499 0.312502 0.115359
565 5 0.249999 0.374998 0.11536
566 5 0.312501 0.437499 0.115357
567 5 0.375001 0.374997 0.115362
568 5 0.437501 0.437499 0.115358
337 5 0.5 0.25 0.0769233
338 5 0.5625 0.3125 0.0769233
339 5 0.5625 0.25 0.0960812
340 5 0.5 0.3125 0.0960813
341 5 0.625 0.25 0.0769233
342 5 0.6875 0.3125 0.0769233
343 5 0.6875 0.25 0.0960811
344 5 0.625 0.3125 0.0960813
369 5 0.5 0.375 0.0769233
370 5 0.5625 0.4375 0.0769233
371 5 0.5625 0.375 0.0960812
372 5 0.5 0.4375 0.0960812
373 5 0.625 0.375 0.0769233
374 5 0.6875 0.4375 0.0769233
375 5 0.6875 0.375 0.0960812
376 5 0.625 0.4375 0.0960812
553 5 0.5 0.250002 0.115359
554 5 0.5625 0.3125 0.115359
555 5 0.625001 0.250002 0.11536
556 5 0.687497 0.312499 0.115358
569 5 0.499999 0.374998 0.11536
570 5 0.562501 0.4375 0.115358
571 5 0.624999 0.374999 0.11536
572 5 0.6875 0.437502 0.115359
345 5 0.75 0.25 0.0769233
346 5 0.8125 0.3125 0.0769233
347 5 0.8125 0.25 0.0960811
348 5 0.75 0.3125 0.0960811
349 5 0.875 0.25 0.0769233
350 5 0.9375 0.3125 0.0769234
351 5 0.9375 0.25 0.0960813
352 5 0.875 0.3125 0.0960814
377 5 0.75 0.375 0.0769233
378 5 0.8125 0.4375 0.0769233
379 5 0.8125 0.375 0.0960813
380 5 0.75 0.4375 0.0960812
381 5 0.875 0.375 0.0769234
382 5 0.9375 0.4375 0.0769234
383 5 0.9375 0.375 0.0960816
384 5 0.875 0.4375 0.0960815
557 5 0.75 0.25 0.115358
558 5 0.812503 0.312502 0.115358
559 5 0.875002 0.250001 0.115361
560 5 0.9375 0.312502 0.11536
573 5 0.750001 0.375001 0.115358
574 5 0.812502 0.437499 0.115359
575 5 0.875002 0.375 0.115363
576 5 0.9375 0.437499 0.11536
385 5 1 0.5 0.0769233
386 5 0.0625 0.5625 0.0769233
387 5 0.0624998 0.5 0.0960813
388 5 1 0.5625 0.0960813
389 5 0.125 0.5 0.0769233
390 5 0.1875 0.5625 0.0769233
391 5 0.1875 0.5 0.0960811
392 5 0.125 0.5625 0.0960812
417 5 2.31673e-09 0.625 0.0769233
418 5 0.0625 0.6875 0.0769233
419 5 0.0625 0.625 0.0960812
420 5 7.374e-08 0.6875 0.0960812
421 5 0.125 0.625 0.0769233
422 5 0.1875 0.6875 0.0769233
423 5 0.1875 0.625 0.0960812
424 5 0.125 0.6875 0.0960812
577 5 0.999998 0.499998 0.115361
578 5 0.0624994 0.562501 0.115358
579 5 0.124999 0.499998 0.115359
580 5 0.187501 0.562502 0.115358
593 5 1 0.624998 0.11536
594 5 0.0625 0.6875 0.115357
595 5 0.124999 0.624999 0.11536
596 5 0.187501 0.687499 0.115358
393 5 0.25 0.5 0.0769233
394 5 0.3125 0.5625 0.0769233
395 5 0.3125 0.5 0.0960811
396 5 0.25 0.5625 0.0960813
397 5 0.375 0.5 0.0769233
398 5 0.4375 0.5625 0.0769233
399 5 0.4375 0.5 0.0960812
400 5 0.375 0.5625 0.0960813
425 5 0.25 0.625 0.0769233
426 5 0.3125 0.6875 0.0769233
427 5 0.3125 0.625 0.0960814
428 5 0.25 0.6875 0.0960813
429 5 0.375 0.625 0.0769233
430 5 0.4375 0.6875 0.0769233
431 5 0.4375 0.625 0.0960814
432 5 0.375 0.6875 0.0960814
581 5 0.250001 0.500002 0.115359
582 5 0.3125 0.562502 0.115359
583 5 0.375 0.500001 0.115359
584 5 0.437499 0.562502 0.115359
597 5 0.250001 0.625 0.115362
598 5 0.312501 0.687498 0.115359
599 5 0.375001 0.625 0.115362
600 5 0.437499 0.6875 0.115359
401 5 0.5 0.5 0.0769233
402 5 0.5625 0.5625 0.0769233
403 5 0.5625 0.5 0.0960812
404 5 0.5 0.5625 0.0960812
405 5 0.625 0.5 0.0769233
406 5 0.6875 0.5625 0.0769233
407 5 0.6875 0.5 0.0960813
408 5 0.625 0.5625 0.0960812
433 5 0.5 0.625 0.0769233
434 5 0.5625 0.6875 0.0769233
435 5 0.5625 0.625 0.0960811
436 5 0.5 0.6875 0.0960813
437 5 0.625 0.625 0.0769233
438 5 0.6875 0.6875 0.0769233
439 5 0.6875 0.625 0.0960813
440 5 0.625 0.6875 0.0960812
585 5 0.499998 0.5 0.11536
586 5 0.562499 0.5625 0.115357
587 5 0.625001 0.499998 0.115361
588 5 0.687501 0.562501 0.115358
601 5 0.499998 0.624999 0.11536
602 5 0.562498 0.687502 0.115358
603 5 0.625002 0.625001 0.115359
604 5 0.687503 0.687499 0.115359
409 5 0.75 0.5 0.0769233
410 5 0.8125 0.5625 0.0769233
411 5 0.8125 0.5 0.0960812
412 5 0.75 0.5625 0.0960812
413 5 0.875 0.5 0.0769233
414 5 0.9375 0.5625 0.0769233
415 5 0.9375 0.5 0.0960814
416 5 0.875 0.5625 0.0960812
441 5 0.75 0.625 0.0769233
442 5 0.8125 0.6875 0.0769233
443 5 0.8125 0.625 0.0960811
444 5 0.75 0.6875 0.0960814
445 5 0.875 0.625 0.0769233
446 5 0.9375 0.6875 0.0769233
447 5 0.9375 0.625 0.0960811
448 5 0.875 0.6875 0.096081
589 5 0.749998 0.499999 0.11536
590 5 0.812499 0.5625 0.115357
591 5 0.875002 0.499998 0.115361
592 5 0.937501 0.562499 0.115359
605 5 0.749998 0.625002 0.115362
606 5 0.812496 0.687501 0.115358
607 5 0.875 0.624999 0.115358
608 5 0.937501 0.6875 0.115357
449 5 2.47825e-08 0.75 0.0769233
450 5 0.0625 0.8125 0.0769234
451 5 0.0625 0.75 0.0960813
452 5 1.69035e-07 0.812501 0.0960816
453 5 0.125 0.75 0.0769233
454 5 0.1875 0.8125 0.0769233
455 5 0.1875 0.75 0.0960811
456 5 0.125 0.8125 0.0960814
481 5 1.87171e-08 0.875 0.0769234
482 5 0.0625 0.9375 0.0769234
483 5 0.0624998 0.875 0.0960817
484 5 7.06041e-08 0.937499 0.0960815
485 5 0.125 0.875 0.0769234
486 5 0.1875 0.9375 0.0769233
487 5 0.187499 0.875 0.0960813
488 5 0.125 0.9375 0.0960814
609 5 3.59494e-07 0.750002 0.115359
610 5 0.0624996 0.812505 0.115361
611 5 0.124999 0.750003 0.11536
612 5 0.187496 0.812501 0.115358
625 5 7.06425e-07 0.875 0.115362
626 5 0.0624996 0.937495 0.11536
627 5 0.124997 0.875 0.115363
628 5 0.187499 0.9375 0.115359
457 5 0.25 0.75 0.0769233
458 5 0.3125 0.8125 0.0769233
459 5 0.3125 0.75 0.0960812
460 5 0.25 0.8125 0.096081
461 5 0.375 0.75 0.0769233
462 5 0.4375 0.8125 0.0769233
463 5 0.4375 0.75 0.0960814
464 5 0.375 0.8125 0.0960813
489 5 0.25 0.875 0.0769233
490 5 0.3125 0.9375 0.0769233
491 5 0.3125 0.875 0.0960811
492 5 0.25 0.9375 0.0960812
493 5 0.375 0.875 0.0769233
494 5 0.4375 0.9375 0.0769233
495 5 0.4375 0.875 0.0960812
496 5 0.375 0.9375 0.0960812
613 5 0.25 0.749999 0.115358
614 5 0.312502 0.812499 0.115357
615 5 0.375001 0.749998 0.115362
616 5 0.4375 0.812499 0.115359
629 5 0.249999 0.875001 0.115358
630 5 0.312499 0.937501 0.115357
631 5 0.375002 0.874999 0.11536
632 5 0.437499 0.937499 0.115358
465 5 0.5 0.75 0.0769233
466 5 0.5625 0.8125 0.0769233
467 5 0.5625 0.75 0.0960813
468 5 0.5 0.8125 0.0960813
469 5 0.625 0.75 0.0769233
470 5 0.6875 0.8125 0.0769233
471 5 0.6875 0.75 0.0960813
472 5 0.625 0.8125 0.0960812
497 5 0.5 0.875 0.0769233
498 5 0.5625 0.9375 0.0769233
499 5 0.5625 0.875 0.0960812
500 5 0.5 0.9375 0.0960812
501 5 0.625 0.875 0.0769233
502 5 0.6875 0.9375 0.0769233
503 5 0.6875 0.875 0.0960811
504 5 0.625 0.9375 0.0960813
617 5 0.500001 0.75 0.115362
618 5 0.562499 0.812499 0.115359
619 5 0.625 0.750001 0.115359
620 5 0.6875 0.812499 0.115358
633 5 0.499999 0.874999 0.115359
634 5 0.562501 0.937502 0.115358
635 5 0.625 0.874999 0.11536
636 5 0.6875 0.937504 0.115358
473 5 0.75 0.75 0.0769233
474 5 0.8125 0.8125 0.0769233
475 5 0.8125 0.75 0.0960812
476 5 0.75 0.8125 0.0960812
477 5 0.875 0.75 0.0769233
478 5 0.9375 0.8125 0.0769234
479 5 0.9375 0.75 0.0960811
480 5 0.875 0.8125 0.0960813
505 5 0.75 0.875 0.0769233
506 5 0.8125 0.9375 0.0769233
507 5 0.8125 0.875 0.0960813
508 5 0.75 0.9375 0.0960813
509 5 0.875 0.875 0.0769234
510 5 0.9375 0.9375 0.0769234
511 5 0.9375 0.875 0.0960816
512 5 0.875 0.9375 0.0960814
621 5 0.749999 0.749998 0.115362
622 5 0.8125 0.812501 0.115358
623 5 0.875 0.750001 0.115358
624 5 0.937503 0.812505 0.115359
637 5 0.750002 0.875001 0.115359
638 5 0.812501 0.9375 0.11536
639 5 0.875001 0.875002 0.115363
640 5 0.937501 0.937496 0.11536
1281 1 0.00231809 0.011828 0.154205
1285 2 0.147242 0.00655588 0.155618
1286 2 0.104077 0.0135297 0.151964
1306 2 0.0106721 0.105413 0.149652
1308 1 0.124552 0.113701 0.155239
1309 2 0.148497 0.12939 0.152238
1310 2 0.102758 0.13435 0.154259
1311 1 0.243141 0.121939 0.150843
1313 2 0.23625 0.141276 0.158288
1332 1 0.117984 0.240353 0.153838
1333 2 0.148995 0.242038 0.153262
1335 1 0.242074 0.245498 0.151307
1336 2 0.241273 0.245068 0.160546
1474 2 0.0118161 0.0207316 0.187162
1476 1 0.108736 0.0367391 0.189438
1477 2 0.148868 0.00094937 0.192029
1480 2 0.242025 0.028624 0.192452
1498 2 0.0259472 0.114937 0.191724
1500 1 0.119575 0.114952 0.191393
1501 2 0.142525 0.117068 0.197862
1502 2 0.114161 0.14142 0.188502
1503 1 0.241897 0.115931 0.192501
1505 2 0.236573 0.146322 0.192341
1522 2 0.0231619 0.247962 0.196498
1524 1 0.116106 0.241752 0.192223
1525 2 0.147185 0.236405 0.19217
1527 1 0.24434 0.240043 0.190805
4930 3 0.0478721 0.150852 0.165275
4938 3 0.0500848 0.214421 0.157278
1288 2 0.247777 0.017591 0.14792
1292 2 0.37329 0.0228278 0.156988
1294 2 0.481616 0.00853266 0.158666
1312 2 0.269503 0.114154 0.153379
1314 1 0.374102 0.12547 0.15753
1315 2 0.362566 0.14325 0.151154
1316 2 0.390302 0.105954 0.152193
1317 1 0.497296 0.113312 0.153632
1319 2 0.490481 0.130488 0.160554
1339 2 0.356101 0.237714 0.152035
1343 2 0.498214 0.235809 0.158565
1482 1 0.385422 0.00405888 0.193829
1483 2 0.358498 0.0211366 0.1926
1487 2 0.47694 0.0123952 0.192829
1504 2 0.272798 0.114669 0.193581
1506 1 0.367466 0.116855 0.190816
1507 2 0.361827 0.147067 0.192203
1508 2 0.392149 0.110532 0.194147
1511 2 0.48199 0.114443 0.195627
1529 2 0.254563 0.244371 0.199634
1530 1 0.363097 0.247947 0.192176
1531 2 0.381581 0.243183 0.185532
4967 3 0.404902 0.208581 0.156044
1296 1 0.630177 0.00275337 0.150503
1298 2 0.603004 0.0114858 0.154367
1318 2 0.514199 0.128856 0.147698
1320 1 0.631061 0.135524 0.154364
1321 2 0.625632 0.112759 0.16127
1322 2 0.621771 0.122702 0.146803
1323 1 0.744226 0.11877 0.156503
1325 2 0.736193 0.144791 0.153508
1345 2 0.629206 0.233747 0.148539
1489 2 0.638076 0.00320019 0.19934
1493 2 0.746623 0.0176464 0.197903
1509 1 0.506233 0.115555 0.19113
1510 2 0.51411 0.144207 0.190309
1512 1 0.621835 0.128558 0.188847
1513 2 0.614191 0.137597 0.196435
1514 2 0.641499 0.104925 0.191339
1516 2 0.737938 0.106673 0.192881
1533 1 0.500918 0.247414 0.196041
1535 2 0.524353 0.250882 0.188865
1537 2 0.627557 0.24041 0.185106
1538 2 0.628547 0.246594 0.198597
1539 1 0.744652 0.238556 0.193199
4949 3 0.545627 0.0575943 0.163127
1300 2 0.755838 0.0235824 0.154246
1303 2 0.885648 0.0150159 0.158905
1305 1 0.992835 0.118355 0.156136
1307 2 0.99744 0.146491 0.156054
1324 2 0.770535 0.111495 0.151569
1326 1 0.864642 0.128229 0.151888
1327 2 0.869052 0.110599 0.160649
1328 2 0.895505 0.134907 0.150581
1330 2 0.99649 0.242843 0.160455
1331 2 0.997058 0.247869 0.146322
1348 2 0.764121 0.232004 0.151909
1350 1 0.886966 0.249832 0.15314
1351 2 0.872177 0.247773 0.159997
1473 1 0.992227 0.0115977 0.194867
1491 1 0.752448 0.00556426 0.189047
1496 2 0.875272 0.0292605 0.192718
1497 1 0.992717 0.115231 0.192567
1499 2 0.987234 0.144025 0.192043
1515 1 0.75498 0.127092 0.195672
1517 2 0.759538 0.140848 0.187338
1518 1 0.872123 0.114147 0.190708
1519 2 0.896692 0.121127 0.195962
1520 2 0.855259 0.141862 0.191299
1521 1 0.996209 0.238464 0.192081
1540 2 0.756843 0.248955 0.184231
1542 1 0.84435 0.226744 0.197301
1329 1 0.00417858 0.262384 0.153993
1334 2 0.108263 0.268971 0.153272
1353 1 0.00698216 0.374699 0.150789
1355 2 0.0155016 0.373569 0.158653
1356 1 0.123573 0.375625 0.150103
1357 2 0.121473 0.354917 0.155313
1358 2 0.126952 0.399991 0.156555
1359 1 0.243373 0.365155 0.153388
1361 2 0.234077 0.391375 0.150964
1379 2 0.0195939 0.485553 0.15309
1380 1 0.124044 0.488577 0.155049
1382 2 0.136229 0.498052 0.147524
1526 2 0.114292 0.270232 0.192076
1545 1 0.00738895 0.397261 0.185973
1547 2 0.00643144 0.363609 0.186088
1548 1 0.119338 0.379246 0.189276
1549 2 0.145289 0.364038 0.189778
1550 2 0.114095 0.388595 0.198226
1551 1 0.238302 0.373425 0.193333
1552 2 0.24895 0.383215 0.18524
1570 2 0.0135184 0.47954 0.194869
1572 1 0.132322 0.494626 0.194745
1573 2 0.106927 0.482034 0.19041
5038 4 0.0211541 0.328784 0.213579
1337 2 0.267693 0.263892 0.149731
1338 1 0.357885 0.278753 0.154472
1340 2 0.399076 0.256675 0.154101
1342 2 0.498839 0.260867 0.146384
1360 2 0.271884 0.365855 0.156095
1362 1 0.378714 0.365934 0.151769
1363 2 0.377168 0.392884 0.149304
1364 2 0.371891 0.363085 0.160617
1365 1 0.491513 0.366823 0.153949
1367 2 0.485406 0.394134 0.153931
1384 2 0.257155 0.482964 0.158688
1387 2 0.368353 0.498823 0.146705
1388 2 0.396948 0.500161 0.157867
1389 1 0.48804 0.497506 0.153347
1528 2 0.254533 0.267738 0.186981
1532 2 0.377758 0.263548 0.198716
1534 2 0.47829 0.259565 0.190678
1553 2 0.26372 0.371807 0.198013
1554 1 0.340802 0.363746 0.189819
1555 2 0.404236 0.369341 0.190749
1556 2 0.362123 0.395555 0.191768
1557 1 0.46788 0.381188 0.186543
1575 1 0.252812 0.488254 0.192354
1578 1 0.381541 0.489958 0.193077
1580 2 0.350791 0.495687 0.195169
4991 3 0.404454 0.431196 0.212617
5014 3 0.409471 0.367724 0.199175
1341 1 0.502456 0.254364 0.155421
1344 1 0.632627 0.259305 0.153266
1346 2 0.612859 0.257598 0.159663
1349 2 0.729879 0.266445 0.152028
1366 2 0.523856 0.362642 0.153853
1368 1 0.61774 0.365231 0.154129
1369 2 0.645465 0.366397 0.153804
1370 2 0.612831 0.396061 0.153508
1373 2 0.728455 0.37693 0.155735
1391 2 0.511307 0.492486 0.147379
1392 1 0.626358 0.488898 0.152354
1394 2 0.612369 0.497067 0.159808
1395 1 0.741527 0.491769 0.153042
1536 1 0.624843 0.262007 0.191984
1541 2 0.748205 0.261185 0.197316
1558 2 0.511936 0.359399 0.197068
1559 2 0.504971 0.396058 0.187741
1560 1 0.613862 0.369897 0.192639
1561 2 0.642446 0.354471 0.190913
1562 2 0.622373 0.395161 0.192632
1563 1 0.727926 0.390759 0.192999
1565 2 0.736126 0.379165 0.197934
1581 1 0.503535 0.491223 0.189862
1585 2 0.639701 0.48071 0.193184
4984 3 0.532977 0.314265 0.158315
5004 3 0.538352 0.34429 0.201786
1347 1 0.751966 0.251556 0.157497
1352 2 0.864257 0.251861 0.146953
1354 2 0.976072 0.381493 0.1509
1371 1 0.755034 0.381441 0.156526
1372 2 0.769102 0.369166 0.149354
1374 1 0.878113 0.37284 0.15022
1375 2 0.861384 0.398353 0.154174
1376 2 0.886132 0.360005 0.157662
1377 1 0.991355 0.492316 0.152827
1396 2 0.771572 0.487302 0.152868
1398 1 0.880787 0.489804 0.153018
1399 2 0.870185 0.498277 0.161744
1523 2 0.987057 0.261481 0.187451
1543 2 0.886011 0.257143 0.198624
1544 2 0.869846 0.250236 0.185497
1546 2 0.984382 0.386249 0.196933
1564 2 0.770286 0.380138 0.18706
1566 1 0.875216 0.379929 0.188968
1567 2 0.896042 0.378904 0.194958
1568 2 0.854094 0.370798 0.193391
1569 1 0.998733 0.49785 0.188707
1587 1 0.7521 0.496552 0.188868
1588 2 0.755482 0.480623 0.195892
1590 1 0.864278 0.489721 0.189343
1591 2 0.874391 0.489403 0.198729
5009 3 0.921885 0.267804 0.185724
5117 4 0.784231 0.310044 0.18102
1381 2 0.111144 0.513907 0.158484
1385 2 0.239798 0.505689 0.147153
1402 2 0.0245831 0.621784 0.152174
1404 1 0.115018 0.618575 0.153194
1405 2 0.121028 0.633643 0.160603
1406 2 0.137591 0.622887 0.146953
1409 2 0.228578 0.627044 0.153911
1426 2 0.0240795 0.746048 0.153285
1429 2 0.141442 0.744 0.148652
1430 2 0.110914 0.743029 0.159748
1431 1 0.246608 0.748549 0.157357
1574 2 0.131963 0.518077 0.191677
1577 2 0.237621 0.502707 0.199519
1593 1 0.0102857 0.629166 0.193562
1595 2 0.00386894 0.60379 0.19189
1596 1 0.0876515 0.634883 0.194448
1597 2 0.113436 0.635698 0.187385
1598 2 0.14219 0.612087 0.195966
1599 1 0.259633 0.639076 0.19106
1601 2 0.247413 0.614939 0.186463
1618 2 0.0243878 0.739357 0.190212
1620 1 0.115051 0.743979 0.193405
1621 2 0.14503 0.732616 0.19118
1623 1 0.239846 0.744513 0.191023
5094 4 0.191441 0.611489 0.197111
1383 1 0.253787 0.510641 0.155297
1386 1 0.365188 0.503807 0.155835
1407 1 0.253478 0.629238 0.150485
1408 2 0.269206 0.617468 0.157113
1410 1 0.381346 0.618507 0.151439
1411 2 0.390981 0.639491 0.156216
1412 2 0.35255 0.617704 0.152039
1413 1 0.493193 0.614252 0.153531
1415 2 0.483917 0.644166 0.15315
1432 2 0.272472 0.739717 0.153087
1434 1 0.375259 0.740055 0.151613
1435 2 0.358433 0.746707 0.159162
1576 2 0.254244 0.506602 0.185031
1579 2 0.387808 0.513214 0.187757
1583 2 0.476205 0.504047 0.190927
1600 2 0.263421 0.628014 0.199862
1602 1 0.367668 0.632797 0.193948
1603 2 0.376881 0.608056 0.197685
1604 2 0.380177 0.635574 0.185765
1607 2 0.486805 0.62726 0.198905
1624 2 0.270472 0.733848 0.190734
1626 1 0.36482 0.748492 0.194237
1627 2 0.392004 0.732932 0.194832
1629 1 0.491546 0.740997 0.191786
1390 2 0.501683 0.512282 0.160688
1393 2 0.64158 0.513836 0.14954
1397 2 0.738449 0.516336 0.156491
1414 2 0.52229 0.6202 0.152986
1416 1 0.632368 0.634101 0.154433
1417 2 0.631204 0.610582 0.159785
1418 2 0.614972 0.632261 0.147568
1419 1 0.740314 0.627301 0.151692
1421 2 0.747926 0.604917 0.156407
1437 1 0.507779 0.745446 0.151246
1441 2 0.644062 0.733285 0.155324
1443 1 0.748709 0.74193 0.151063
1582 2 0.518896 0.5076 0.196833
1584 1 0.633038 0.50885 0.192455
1586 2 0.604483 0.513291 0.190891
1589 2 0.742906 0.521569 0.191163
1605 1 0.510872 0.6228 0.194133
1606 2 0.504688 0.628466 0.184786
1608 1 0.618776 0.614483 0.192432
1609 2 0.647066 0.618264 0.191993
1610 2 0.606843 0.645561 0.191881
1613 2 0.732236 0.643527 0.193404
1630 2 0.525039 0.740273 0.19043
1632 1 0.619269 0.739059 0.192163
1635 1 0.742669 0.743337 0.194617
4969 3 0.509821 0.621736 0.173263
1378 2 0.9873 0.521341 0.15586
1400 2 0.876927 0.511887 0.147837
1401 1 0.995 0.613888 0.153475
1403 2 0.981417 0.640867 0.156293
1420 2 0.761796 0.645863 0.154057
1422 1 0.87395 0.616263 0.156372
1423 2 0.879424 0.61324 0.147376
1424 2 0.874775 0.64628 0.158088
1425 1 0.993164 0.732773 0.15444
1444 2 0.772229 0.74806 0.156435
1446 1 0.874607 0.746029 0.157393
1447 2 0.858266 0.737855 0.1496
1571 2 0.989714 0.519554 0.193222
1592 2 0.886261 0.517093 0.187138
1594 2 0.986311 0.646353 0.191321
1611 1 0.752614 0.625998 0.188699
1612 2 0.766923 0.609238 0.19451
1614 1 0.87943 0.613965 0.191271
1615 2 0.853924 0.629745 0.188334
1616 2 0.890581 0.637949 0.197125
1617 1 0.993722 0.740031 0.193141
1636 2 0.762157 0.733554 0.188039
1638 1 0.867638 0.740899 0.193211
1640 2 0.894711 0.744498 0.197212
4982 3 0.878076 0.543858 0.201513
4992 3 0.941247 0.573328 0.171966
1283 2 0.0213282 0.988575 0.155052
1284 1 0.123108 0.987569 0.154193
1287 1 0.249456 0.988848 0.152247
1428 1 0.123472 0.762047 0.153464
1433 2 0.231355 0.760217 0.150589
1450 2 0.00519378 0.855784 0.150123
1452 1 0.118771 0.87492 0.150646
1453 2 0.131048 0.849747 0.154558
1454 2 0.127096 0.902492 0.155121
1455 1 0.243947 0.875738 0.157082
1456 2 0.244336 0.899315 0.150123
1478 2 0.105484 0.989025 0.192499
1479 1 0.247861 0.997021 0.195827
1622 2 0.120525 0.770851 0.193136
1625 2 0.244263 0.770818 0.194632
1641 1 0.00739519 0.882174 0.19034
1642 2 0.00863184 0.878068 0.199752
1644 1 0.131392 0.883722 0.194029
1645 2 0.120575 0.883449 0.185135
1646 2 0.120784 0.858635 0.198017
1648 2 0.2414 0.869616 0.184447
1649 2 0.243239 0.87755 0.199483
4944 3 0.14881 0.959613 0.200374
4987 3 0.0427606 0.965695 0.200507
5044 4 0.00953049 0.807028 0.169643