ITEM: TIMESTEP
0
ITEM: NUMBER OF ATOMS
202
ITEM: BOX BOUNDS pp pp pp
-1.6070000000000001e-01 1.2263700000000000e+01
8.8669999999999999e-02 1.2513070000000001e+01
-1.0499200000000000e-01 1.2319407999999999e+01
ITEM: ATOMS id type xs ys zs
7 1 0.353695 0.418109 0.465055
8 2 0.303487 0.389484 0.413195
9 2 0.375636 0.486663 0.443351
26 2 0.0745053 0.496446 0.067181
58 1 0.433705 0.315363 0.19377
59 2 0.49846 0.321669 0.235409
60 2 0.438724 0.277312 0.127686
73 1 0.122749 0.120873 0.303294
74 2 0.137473 0.091375 0.234626
75 2 0.0994414 0.06317 0.344481
82 1 0.0530522 0.302843 0.205224
83 2 0.0655954 0.23743 0.239472
84 2 0.100328 0.353827 0.231509
103 1 0.157056 0.0216142 0.093298
105 2 0.17019 0.073577 0.0381409
136 1 0.24062 0.422503 0.262396
137 2 0.26367 0.484768 0.295477
138 2 0.306949 0.387357 0.233983
142 1 0.189757 0.410752 0.0480309
143 2 0.205936 0.413732 0.121976
144 2 0.249908 0.451221 0.0215537
193 3 0.376881 0.245875 0.418224
198 4 0.0150743 0.354341 0.414001
202 4 0.102534 0.285265 0.455346
11 2 0.512209 0.0382703 0.354647
43 1 0.861362 0.215082 0.303985
44 2 0.928866 0.243235 0.292385
45 2 0.863116 0.190592 0.374326
67 1 0.719772 0.272313 0.0146336
68 2 0.673093 0.297407 0.0685707
91 1 0.621089 0.0046721 0.109933
97 1 0.655397 0.418846 0.491674
98 2 0.730033 0.428397 0.48546
99 2 0.628857 0.492463 0.494921
133 1 0.877161 0.485922 0.44329
135 2 0.855888 0.474901 0.371225
160 1 0.64723 0.331866 0.284875
161 2 0.637454 0.342681 0.360891
162 2 0.718658 0.30715 0.278382
169 1 0.865378 0.0430203 0.158627
170 2 0.870279 0.109736 0.20056
171 2 0.800371 0.0490771 0.118184
172 1 0.651855 0.472404 0.119884
173 2 0.637624 0.438478 0.18491
174 2 0.5815 0.49584 0.0983775
185 2 0.98915 0.304873 0.0476569
186 2 0.86145 0.281423 0.00104383
197 3 0.518431 0.268544 0.426557
12 2 0.440751 0.975867 0.27201
16 1 0.126732 0.685745 0.253712
17 2 0.122531 0.761638 0.274839
18 2 0.165035 0.650298 0.307514
19 1 0.46832 0.578703 0.0628482
20 2 0.433089 0.526965 0.0102249
21 2 0.411875 0.621903 0.0986858
25 1 0.0158099 0.53974 0.0968209
27 2 0.0450481 0.577578 0.157307
28 1 0.313857 0.94177 0.205849
29 2 0.275071 0.946696 0.273194
30 2 0.259555 0.969691 0.151579
42 2 0.479837 0.978472 0.0182377
46 1 0.152613 0.570703 0.442364
47 2 0.166864 0.519636 0.495793
48 2 0.0852618 0.542175 0.417985
85 1 0.144302 0.886613 0.381908
86 2 0.153299 0.896199 0.456962
87 2 0.0706223 0.862129 0.373381
104 2 0.0980667 0.975438 0.0678995
145 1 0.278009 0.726391 0.100832
146 2 0.293636 0.795912 0.123733
147 2 0.23413 0.705085 0.161967
178 1 0.374875 0.640653 0.352133
179 2 0.330057 0.680081 0.400438
180 2 0.435944 0.688856 0.337002
4 1 0.741973 0.7823 0.0449425
5 2 0.675058 0.782263 0.00283249
10 1 0.512834 0.979245 0.303639
49 1 0.566443 0.773736 0.357514
50 2 0.633199 0.7535 0.327349
51 2 0.562711 0.851158 0.350703
92 2 0.652794 0.939154 0.09244
93 2 0.587467 0.98904 0.17876
95 2 0.587269 0.667046 0.486605
106 1 0.84058 0.521423 0.215442
107 2 0.790712 0.50174 0.165617
108 2 0.900712 0.514905 0.167836
116 2 0.883785 0.737341 0.442431
118 1 0.978848 0.906533 0.0236321
120 2 0.943361 0.956113 0.0683986
124 1 0.769483 0.725634 0.265458
125 2 0.752782 0.743782 0.190825
126 2 0.797409 0.652418 0.252982
134 2 0.883383 0.558995 0.464712
148 1 0.905436 0.878331 0.334395
149 2 0.888494 0.935967 0.286364
150 2 0.855124 0.831278 0.304222
196 3 0.968941 0.998287 0.203993
14 2 0.493791 0.00124416 0.517813
22 1 0.378384 0.445544 0.922
23 2 0.411868 0.378881 0.948246
24 2 0.395249 0.438488 0.846511
37 1 0.136857 0.391956 0.587109
38 2 0.164161 0.34345 0.644167
39 2 0.0619052 0.384938 0.598721
40 1 0.431039 0.00586185 0.964424
62 2 0.480274 0.445003 0.681591
63 2 0.374354 0.477903 0.634502
64 1 0.0496543 0.122612 0.656912
65 2 0.0108496 0.124214 0.724656
66 2 0.0668407 0.0432119 0.646787
109 1 0.197302 0.194764 0.956931
110 2 0.198623 0.206799 0.879953
111 2 0.180473 0.26058 0.990647
154 1 0.426328 0.221426 0.978099
155 2 0.349573 0.210956 0.973189
156 2 0.437708 0.14348 0.985979
175 1 0.401025 0.242853 0.613818
176 2 0.437923 0.180761 0.576874
177 2 0.372874 0.294194 0.561832
187 1 0.219491 0.234633 0.734547
188 2 0.288558 0.21706 0.702908
189 2 0.165293 0.187054 0.708716
199 4 0.106696 0.243161 0.806809
200 4 0.0374249 5.37126e-05 0.902748
3 2 0.796306 0.483437 0.914136
13 1 0.518008 0.0776617 0.511797
15 2 0.590142 0.0782484 0.545185
34 1 0.916769 0.429077 0.830736
35 2 0.91903 0.403604 0.752618
36 2 0.936295 0.365197 0.867703
55 1 0.880888 0.145934 0.503895
56 2 0.826825 0.113448 0.549331
57 2 0.941357 0.131354 0.547195
69 2 0.680144 0.247561 0.954887
76 1 0.712347 0.0530063 0.602366
77 2 0.684933 0.0670383 0.672783
88 1 0.938645 0.0908157 0.854721
89 2 0.864661 0.0686807 0.859655
90 2 0.947112 0.152383 0.904961
112 1 0.594623 0.197801 0.845223
113 2 0.52702 0.211137 0.882609
114 2 0.612729 0.261639 0.802046
121 1 0.625708 0.385552 0.731733
122 2 0.645403 0.411914 0.662542
123 2 0.669153 0.429994 0.779515
129 2 0.512861 0.0608455 0.748438
130 1 0.735495 0.00367631 0.881885
132 2 0.694824 0.052313 0.927457
181 1 0.922475 0.368299 0.621608
182 2 0.925646 0.295035 0.602416
183 2 0.902257 0.403002 0.55439
184 1 0.93941 0.282324 0.986993
195 3 0.663672 0.333489 0.941273
31 1 0.0719322 0.713717 0.593612
32 2 0.0711531 0.673614 0.661878
33 2 0.103823 0.663639 0.548006
41 2 0.372061 0.958898 0.957374
61 1 0.425469 0.500178 0.683169
70 1 0.147552 0.920506 0.595432
71 2 0.215515 0.939162 0.623954
72 2 0.132664 0.848333 0.614621
79 1 0.340759 0.697536 0.561506
80 2 0.359549 0.771784 0.570252
81 2 0.319946 0.679853 0.633577
96 2 0.493514 0.630379 0.54945
100 1 0.464957 0.873026 0.556667
102 2 0.489371 0.89306 0.624773
128 2 0.469634 0.961159 0.816779
151 1 0.278365 0.846812 0.915706
152 2 0.229894 0.812323 0.963346
153 2 0.316052 0.788823 0.878835
166 1 0.0706865 0.6 0.783311
167 2 0.0312917 0.653692 0.82181
168 2 0.0344187 0.53538 0.793204
190 1 0.283125 0.647445 0.776661
191 2 0.210895 0.620749 0.792116
192 2 0.324155 0.587437 0.793498
194 3 0.0860113 0.591354 0.886337
201 4 0.489249 0.807099 0.916767
1 1 0.72646 0.51627 0.903584
2 2 0.698728 0.516888 0.975153
6 2 0.801987 0.770611 0.991705
52 1 0.731187 0.809844 0.604132
53 2 0.785833 0.76215 0.574742
54 2 0.686566 0.762799 0.647305
78 2 0.740231 0.980404 0.597759
94 1 0.566568 0.614346 0.534951
101 2 0.525112 0.836308 0.530214
115 1 0.875213 0.693382 0.50674
117 2 0.940472 0.701143 0.545211
119 2 0.966614 0.944724 0.952343
127 1 0.504774 0.982303 0.753459
131 2 0.68955 0.951855 0.851831
139 1 0.94844 0.70297 0.929525
140 2 0.964208 0.639072 0.969696
141 2 0.966453 0.768687 0.967064
157 1 0.549478 0.777633 0.962452
158 2 0.521236 0.709044 0.990277
159 2 0.566754 0.764621 0.887962
163 1 0.620298 0.690117 0.757602
164 2 0.578648 0.653969 0.702434
165 2 0.661011 0.630951 0.786487
ITEM: TIMESTEP
100
ITEM: NUMBER OF ATOMS
202
ITEM: BOX BOUNDS pp pp pp
-1.6070000000000001e-01 1.2263700000000000e+01
8.8669999999999999e-02 1.2513070000000001e+01
-1.0499200000000000e-01 1.2319407999999999e+01
ITEM: ATOMS id type xs ys zs
7 1 0.338152 0.443031 0.466001
8 2 0.290682 0.423118 0.4079
9 2 0.385992 0.501517 0.459893
26 2 0.0228836 0.629652 0.227698
58 1 0.413776 0.351913 0.231291
59 2 0.466738 0.296853 0.229605
60 2 0.400946 0.360229 0.160237
73 1 0.141026 0.130252 0.356309
74 2 0.122806 0.139342 0.281069
75 2 0.211767 0.155408 0.350118
82 1 0.113504 0.269286 0.200579
83 2 0.0893622 0.269774 0.274767
84 2 0.18373 0.313253 0.232812
103 1 0.175535 0.0312166 0.0733145
105 2 0.218268 0.104981 0.0993581
136 1 0.243821 0.391221 0.268551
137 2 0.225572 0.466695 0.250394
138 2 0.322846 0.386851 0.252353
142 1 0.162973 0.338025 0.0184039
143 2 0.170346 0.340092 0.117251
144 2 0.0950408 0.385494 0.978161
193 3 0.366507 0.240085 0.389114
198 4 0.730823 0.535555 0.386344
202 4 0.511948 0.979747 0.519281
11 2 0.585367 0.00318683 0.340827
43 1 0.896107 0.144858 0.314785
44 2 0.972218 0.131637 0.318367
45 2 0.884702 0.151429 0.388923
67 1 0.573554 0.128112 0.177967
68 2 0.635715 0.180669 0.15019
91 1 0.504771 0.951751 0.0941582
97 1 0.509286 0.444834 0.528191
98 2 0.513467 0.459045 0.4525
99 2 0.514052 0.525861 0.54994
133 1 0.810771 0.722214 0.494518
135 2 0.724581 0.711168 0.534694
160 1 0.645788 0.382298 0.269503
161 2 0.67285 0.405063 0.34022
162 2 0.579765 0.422857 0.280359
169 1 0.768753 0.849238 0.164448
170 2 0.809694 0.80323 0.101747
171 2 0.791198 0.889894 0.227587
172 1 0.585441 0.314735 0.0763486
173 2 0.623738 0.373819 0.104639
174 2 0.579231 0.320371 -0.00271091
185 2 0.91908 0.283951 0.053509
186 2 0.848395 0.321327 0.115107
197 3 0.519881 0.238525 0.264562
12 2 0.469167 0.990198 0.363056
16 1 0.109798 0.685341 0.289506
17 2 0.0465186 0.788379 0.281698
18 2 0.12003 0.666171 0.376829
19 1 0.29768 0.528453 0.139089
20 2 0.261334 0.502051 0.0731815
21 2 0.279007 0.601183 0.12056
25 1 0.0257831 0.62053 0.143643
27 2 0.987893 0.541192 0.166885
28 1 0.336393 0.944884 0.214248
29 2 0.384961 0.871279 0.23624
30 2 0.26755 0.925959 0.177809
42 2 0.327847 0.99952 0.925533
46 1 0.115718 0.491836 0.445068
47 2 0.183396 0.514669 0.449438
48 2 0.117683 0.415033 0.462305
85 1 0.319119 0.933081 0.433232
86 2 0.280141 0.00261869 0.432615
87 2 0.331247 0.921372 0.357838
104 2 0.113559 0.0686525 0.0646743
145 1 0.344331 0.749641 0.271539
146 2 0.331076 0.797391 0.207861
147 2 0.265519 0.758267 0.27173
178 1 0.472878 0.625072 0.451241
179 2 0.402093 0.596387 0.472225
180 2 0.448739 0.595488 0.384331
4 1 0.698987 0.779612 0.925861
5 2 0.72169 0.862493 0.95669
10 1 0.519318 0.982144 0.303187
49 1 0.554647 0.769274 0.332292
50 2 0.61326 0.722898 0.32203
51 2 0.570008 0.824924 0.281841
92 2 0.535079 0.0286566 0.115656
93 2 0.465531 0.94533 0.157198
95 2 0.399591 0.606408 0.56628
106 1 0.920712 0.547005 0.997262
107 2 0.929942 0.591044 0.923664
108 2 0.884968 0.591485 0.0263811
116 2 0.837485 0.853407 0.63771
118 1 0.0394719 0.818562 0.27547
120 2 0.971201 0.764883 0.316759
124 1 0.766321 0.702386 0.272226
125 2 0.826572 0.768612 0.255741
126 2 0.688509 0.687809 0.274367
134 2 0.811251 0.694198 0.402003
148 1 0.802852 0.942284 0.42535
149 2 0.85141 0.00225293 0.446311
150 2 0.767255 0.882942 0.480708
196 3 0.149683 0.964178 0.237544
14 2 0.753247 0.130704 0.397519
22 1 0.373578 0.458087 0.887644
23 2 0.370281 0.394208 0.933914
24 2 0.404274 0.418459 0.831195
37 1 0.204286 0.452183 0.799139
38 2 0.169803 0.515013 0.775579
39 2 0.271047 0.461895 0.828894
40 1 0.333422 0.0426264 0.998259
62 2 0.410118 0.457252 0.688186
63 2 0.374757 0.373773 0.563529
64 1 0.982679 0.18042 0.713828
65 2 0.919072 0.225729 0.740688
66 2 0.00777573 0.25422 0.669973
109 1 0.265365 0.190765 0.112639
110 2 0.326421 0.208746 0.0590154
111 2 0.216308 0.237786 0.0663531
154 1 0.39582 0.313936 0.0403455
155 2 0.329848 0.328783 0.0653401
156 2 0.464548 0.305084 0.0881506
175 1 0.571094 0.238851 0.411851
176 2 0.627063 0.197534 0.374414
177 2 0.559193 0.281322 0.476807
187 1 0.373537 0.274881 0.810285
188 2 0.373452 0.210756 0.850438
189 2 0.353938 0.292651 0.718451
199 4 0.738575 0.210747 0.915293
200 4 0.24373 0.0988338 0.763535
3 2 0.719838 0.570228 0.856827
13 1 0.698292 0.0796855 0.329296
15 2 0.767272 0.00273263 0.352839
34 1 0.882867 0.641645 0.769939
35 2 0.892832 0.574104 0.740297
36 2 0.945716 0.685974 0.769852
55 1 0.882746 0.172656 0.520197
56 2 0.878619 0.108342 0.565398
57 2 0.899338 0.23811 0.54995
69 2 0.532624 0.108983 0.238109
76 1 0.814219 0.0406572 0.642693
77 2 0.750325 0.0703851 0.618822
88 1 0.763194 0.260037 0.67619
89 2 0.843746 0.257325 0.660703
90 2 0.765284 0.358862 0.698348
112 1 0.488399 0.105423 0.876272
113 2 0.442835 0.142338 0.816164
114 2 0.438236 0.147013 0.951939
121 1 0.677534 0.594221 0.625448
122 2 0.658406 0.601659 0.717049
123 2 0.700655 0.670264 0.640652
129 2 0.611483 0.216004 0.597313
130 1 0.744324 0.984363 0.849202
132 2 0.683266 0.0226642 0.823232
181 1 0.935801 0.355158 0.628351
182 2 0.915222 0.282089 0.661582
183 2 0.889902 0.388757 0.568066
184 1 0.858077 0.2768 0.0706035
195 3 0.416766 0.607637 0.788619
31 1 0.0834297 0.76134 0.451979
32 2 0.163879 0.769121 0.413324
33 2 0.0688922 0.75175 0.546676
41 2 0.249838 0.0474227 0.0025425
61 1 0.397651 0.390171 0.649768
70 1 0.967868 0.970751 0.506644
71 2 0.949894 0.973927 0.580048
72 2 0.927716 0.898059 0.495036
79 1 0.260856 0.642089 0.512411
80 2 0.23105 0.698791 0.485149
81 2 0.198855 0.599985 0.485017
96 2 0.360506 0.537686 0.620082
100 1 0.560746 0.739938 0.593973
102 2 0.489728 0.698804 0.617412
128 2 0.579655 0.243862 0.692445
151 1 0.146583 0.521056 0.956586
152 2 0.204035 0.495465 0.938473
153 2 0.153026 0.46049 0.896288
166 1 0.976971 0.52158 0.529996
167 2 0.906493 0.563469 0.510183
168 2 0.0407226 0.581763 0.535457
190 1 0.296858 0.703316 0.749504
191 2 0.299677 0.75588 0.814571
192 2 0.370739 0.685307 0.772046
194 3 0.348872 0.545439 0.368167
201 4 0.122714 0.835026 0.633748
1 1 0.713507 0.506457 0.901565
2 2 0.78211 0.47213 0.919943
6 2 0.636287 0.815764 0.896963
52 1 0.717092 0.870016 0.680975
53 2 0.732061 0.810739 0.72973
54 2 0.647118 0.886374 0.644282
78 2 0.790816 0.964396 0.666367
94 1 0.416136 0.58744 0.631079
101 2 0.563405 0.691458 0.527003
115 1 0.910545 0.799921 0.636368
117 2 0.916906 0.774475 0.706915
119 2 0.104053 0.694118 0.305263
127 1 0.590134 0.177769 0.655734
131 2 0.761376 0.932518 0.792952
139 1 0.0140781 0.731422 0.906846
140 2 0.980541 0.782931 0.867241
141 2 0.043958 0.663001 0.889758
157 1 0.483005 0.750774 0.129536
158 2 0.407364 0.736012 0.116186
159 2 0.489206 0.803646 0.0686017
163 1 0.613104 0.720755 0.78852
164 2 0.64555 0.690701 0.72597
165 2 0.610674 0.676189 0.851012
ITEM: TIMESTEP
200
ITEM: NUMBER OF ATOMS
202
ITEM: BOX BOUNDS pp pp pp
-1.6070000000000001e-01 1.2263700000000000e+01
8.8669999999999999e-02 1.2513070000000001e+01
-1.0499200000000000e-01 1.2319407999999999e+01
ITEM: ATOMS id type xs ys zs
7 1 0.154844 0.296162 0.58794
8 2 0.120451 0.234516 0.563465
9 2 0.127242 0.347176 0.528221
26 2 0.969988 0.771519 0.00472751
58 1 0.423217 0.502414 0.332666
59 2 0.500691 0.489682 0.349059
60 2 0.356152 0.459567 0.373976
73 1 0.235061 0.0983466 0.414783
74 2 0.196448 0.0827015 0.35223
75 2 0.268708 0.159101 0.458339
82 1 0.00877613 0.26658 0.234028
83 2 0.970543 0.228946 0.155845
84 2 0.0609593 0.243428 0.278214
103 1 0.970654 0.948105 0.983672
105 2 0.914621 0.908802 0.934334
136 1 0.236104 0.301376 0.232009
137 2 0.209235 0.3532 0.272241
138 2 0.173301 0.246342 0.223725
142 1 0.121218 0.31869 0.0541812
143 2 0.0713386 0.272243 0.014416
144 2 0.191974 0.284746 0.0616249
193 3 0.365304 0.259395 0.425101
198 4 0.655453 0.408741 0.387497
202 4 0.796152 0.00702086 0.591957
11 2 0.553317 1.00731 0.371286
43 1 0.946693 0.01001 0.295296
44 2 0.973465 0.964234 0.357587
45 2 0.96753 0.964368 0.2298
67 1 0.443297 0.0195527 0.0462655
68 2 0.504838 0.974539 0.0398102
91 1 0.476009 0.890744 0.906094
97 1 0.45178 0.464706 0.562791
98 2 0.524224 0.463684 0.545223
99 2 0.455019 0.50387 0.644337
133 1 0.956194 0.863938 0.499
135 2 0.948881 0.857165 0.576929
160 1 0.664062 0.445053 0.138387
161 2 0.617807 0.409168 0.11113
162 2 0.706253 0.376267 0.125352
169 1 0.820341 0.0511672 0.0872027
170 2 0.743623 0.0870512 0.121916
171 2 0.849433 0.122208 0.0626599
172 1 0.48193 0.356434 0.0376414
173 2 0.502817 0.320755 0.105881
174 2 0.414853 0.383195 0.0761786
185 2 0.857541 0.203527 0.132376
186 2 0.980131 0.163489 0.0708331
197 3 0.392895 0.253003 0.157992
12 2 0.5091 0.946451 0.277034
16 1 0.0580661 0.714093 0.294162
17 2 0.0297573 0.828224 0.269744
18 2 0.114876 0.729353 0.374575
19 1 0.134067 0.540989 0.242676
20 2 0.112863 0.601804 0.283045
21 2 0.209602 0.574476 0.227175
25 1 0.994853 0.716843 0.0443247
27 2 0.0580094 0.682328 0.0444256
28 1 0.323305 0.896357 0.129073
29 2 0.326483 0.958741 0.178622
30 2 0.39809 0.884748 0.152028
42 2 0.197241 0.900446 0.988336
46 1 0.045512 0.285009 0.426783
47 2 0.0100709 0.217532 0.38406
48 2 0.0348624 0.345643 0.381246
85 1 0.488817 0.0198117 0.508365
86 2 0.425648 0.0473206 0.53456
87 2 0.525797 0.0307119 0.581624
104 2 0.00510673 0.991227 0.929491
145 1 0.34347 0.788078 0.45822
146 2 0.281569 0.823835 0.40574
147 2 0.300788 0.724228 0.475514
178 1 0.601976 0.770514 0.545998
179 2 0.631136 0.709048 0.553872
180 2 0.601249 0.839425 0.527882
4 1 0.676459 0.83132 0.0277723
5 2 0.729075 0.887424 1.00462
10 1 0.575574 0.981951 0.304093
49 1 0.495688 0.725139 0.186651
50 2 0.487076 0.788165 0.230279
51 2 0.462635 0.660157 0.219855
92 2 0.44252 0.827341 0.956544
93 2 0.42428 0.962716 0.927083
95 2 0.159375 0.511283 0.673948
106 1 0.82442 0.35371 0.806931
107 2 0.771086 0.366771 0.732773
108 2 0.839104 0.412281 0.867795
116 2 0.81506 0.75666 0.916531
118 1 0.0303725 0.854093 0.258979
120 2 0.0670412 0.73203 0.300405
124 1 0.792591 0.681839 0.0542696
125 2 0.759176 0.696913 0.123084
126 2 0.860194 0.680873 0.0747899
134 2 0.875368 0.894274 0.461503
148 1 0.758439 0.692755 0.310387
149 2 0.831429 0.719257 0.278377
150 2 0.686101 0.720045 0.274809
196 3 0.188685 0.956198 0.256267
14 2 0.725347 0.222049 0.917218
22 1 0.382186 0.608403 0.945802
23 2 0.37082 0.553236 0.997203
24 2 0.456479 0.611666 0.918787
37 1 0.108347 0.250606 0.77413
38 2 0.152619 0.250188 0.69903
39 2 0.121497 0.184574 0.835406
40 1 0.256478 0.954627 0.936525
62 2 0.446854 0.191749 0.730661
63 2 0.455862 0.33892 0.683246
64 1 0.92057 0.237787 0.92154
65 2 0.885518 0.166512 0.8691
66 2 0.854308 0.286539 0.86607
109 1 0.365784 0.026347 0.326768
110 2 0.378472 -0.00541195 0.395394
111 2 0.364832 0.0925029 0.320606
154 1 0.274294 0.434459 0.0866874
155 2 0.216546 0.398862 0.142562
156 2 0.297991 0.385728 0.0305962
175 1 0.553382 0.210668 0.34182
176 2 0.612791 0.215484 0.280238
177 2 0.547164 0.283904 0.325226
187 1 0.550291 0.388458 0.786116
188 2 0.578172 0.46033 0.775554
189 2 0.48496 0.415071 0.821924
199 4 0.527767 0.131023 0.88455
200 4 0.193894 0.0910647 0.630018
3 2 0.66215 0.524593 0.973112
13 1 0.709136 0.284992 0.980885
15 2 0.640436 0.287454 0.939382
34 1 0.805318 0.597654 0.824999
35 2 0.769836 0.542892 0.876354
36 2 0.754203 0.61636 0.777676
55 1 0.783067 0.188328 0.461997
56 2 0.816718 0.135144 0.519459
57 2 0.796872 0.114553 0.456494
69 2 0.394889 0.945006 0.0736898
76 1 0.992853 0.156252 0.694312
77 2 0.990569 0.20096 0.759382
88 1 0.729691 0.329818 0.654776
89 2 0.667965 0.283467 0.660939
90 2 0.793568 0.306248 0.609568
112 1 0.41892 0.00789858 0.741714
113 2 0.444802 0.94176 0.752918
114 2 0.444564 0.0813372 0.775748
121 1 0.831018 0.636091 0.601967
122 2 0.816278 0.611088 0.662317
123 2 0.769017 0.669236 0.617656
129 2 0.638996 0.270149 0.52523
130 1 0.856049 0.0612069 0.891775
132 2 0.814646 0.0370913 0.958055
181 1 0.996762 0.476219 0.615334
182 2 0.990953 0.550368 0.630208
183 2 0.955361 0.42516 0.659024
184 1 0.913086 0.2177 0.0928907
195 3 0.317884 0.775341 0.913105
31 1 0.236866 0.750952 0.614316
32 2 0.32259 0.757742 0.607668
33 2 0.251346 0.689365 0.673485
41 2 0.238043 0.902203 0.870867
61 1 0.403717 0.259397 0.705477
70 1 0.029112 0.0325451 0.487858
71 2 0.997103 0.101009 0.500907
72 2 0.106252 0.0493056 0.485997
79 1 0.255762 0.515996 0.439267
80 2 0.177366 0.538543 0.467952
81 2 0.312886 0.49181 0.495835
96 2 0.167059 0.494204 0.757306
100 1 0.381947 0.859703 0.598288
102 2 0.325413 0.894652 0.556677
128 2 0.515431 0.299616 0.511799
151 1 0.101024 0.554712 0.896464
152 2 0.107472 0.488565 0.855029
153 2 0.126966 0.570583 0.966625
166 1 0.0265075 0.726297 0.788936
167 2 0.0150564 0.66921 0.847896
168 2 0.994105 0.696827 0.725763
190 1 0.272483 0.829384 0.770487
191 2 0.23729 0.79891 0.703467
192 2 0.337841 0.800989 0.75459
194 3 0.562702 0.613912 0.481337
201 4 0.968571 0.933811 0.745342
1 1 0.647846 0.489802 0.901422
2 2 0.689874 0.493489 0.83635
6 2 0.741431 0.817695 0.0407629
52 1 0.611394 0.945448 0.767704
53 2 0.601554 0.862391 0.760772
54 2 0.548583 0.0127798 0.784819
78 2 0.0514789 0.145197 0.73722
94 1 0.221333 0.474838 0.69857
101 2 0.438445 0.815793 0.566119
115 1 0.843497 0.819114 0.901843
117 2 0.887022 0.742476 0.917754
119 2 0.0702381 0.725599 0.302095
127 1 0.57846 0.306385 0.557527
131 2 0.911402 0.136584 0.913199
139 1 0.16924 0.827701 0.969998
140 2 0.115003 0.783035 0.987347
141 2 0.244997 0.942017 0.936224
157 1 0.242806 0.6629 0.139416
158 2 0.260479 0.662251 0.0551577
159 2 0.179776 0.610586 0.168215
163 1 0.585452 0.655211 0.8752
164 2 0.649503 0.615897 0.909676
165 2 0.555373 0.721145 0.894462
ITEM: TIMESTEP
300
ITEM: NUMBER OF ATOMS
202
ITEM: BOX BOUNDS pp pp pp
-1.6070000000000001e-01 1.2263700000000000e+01
8.8669999999999999e-02 1.2513070000000001e+01
-1.0499200000000000e-01 1.2319407999999999e+01
ITEM: ATOMS id type xs ys zs
7 1 0.0649555 0.338938 0.737363
8 2 0.0764262 0.290862 0.798985
9 2 0.994911 0.345513 0.724772
26 2 0.79578 0.759886 0.188079
58 1 0.427505 0.522711 0.293245
59 2 0.472826 0.603105 0.294473
60 2 0.442571 0.463087 0.347821
73 1 0.338909 0.0569834 0.273816
74 2 0.292444 0.0620126 0.214754
75 2 0.373143 0.129107 0.273407
82 1 0.972327 0.274211 0.309595
83 2 0.975522 0.20089 0.276566
84 2 0.0165176 0.27325 0.224764
103 1 0.914652 0.954338 0.0832246
105 2 0.835576 0.942326 0.128418
136 1 0.20613 0.244047 0.302096
137 2 0.273398 0.246811 0.340915
138 2 0.126272 0.276887 0.329347
142 1 0.154798 0.358662 0.0841312
143 2 0.107405 0.370461 0.14284
144 2 0.215886 0.343647 0.145963
193 3 0.332582 0.32343 0.547903
198 4 0.683667 0.483168 0.381175
202 4 0.799792 0.0576032 0.647991
11 2 0.683116 0.888851 0.234887
43 1 0.826145 0.0876022 0.323455
44 2 0.731651 0.135239 0.387633
45 2 0.782748 0.0174685 0.339177
67 1 0.383333 0.991532 0.116106
68 2 0.312182 0.00069854 0.0863381
91 1 0.392723 0.865635 0.720771
97 1 0.412812 0.460639 0.51211
98 2 0.331087 0.500487 0.529609
99 2 0.437814 0.531936 0.504451
133 1 0.13582 0.818044 0.539098
135 2 0.121262 0.87591 0.585609
160 1 0.641359 0.336438 0.101687
161 2 0.606938 0.298805 0.173449
162 2 0.709914 0.331215 0.0793785
169 1 0.817972 0.115364 0.133398
170 2 0.773152 0.179258 0.087392
171 2 0.898245 0.206118 0.128855
172 1 0.405695 0.420175 0.976961
173 2 0.447466 0.479179 0.948642
174 2 0.346263 0.433437 0.0264249
185 2 0.815812 0.132529 0.135604
186 2 0.903341 0.13605 0.107028
197 3 0.304019 0.284064 0.129631
12 2 0.646933 0.927056 0.315101
16 1 0.0569072 0.725098 0.29498
17 2 0.0349865 0.835672 0.269173
18 2 0.106594 0.778571 0.357967
19 1 0.104929 0.462516 0.303537
20 2 0.156108 0.41838 0.344266
21 2 0.109388 0.42938 0.240814
25 1 0.853253 0.75343 0.145934
27 2 0.907146 0.781313 0.196775
28 1 0.266243 0.723837 0.166697
29 2 0.270116 0.793898 0.209083
30 2 0.300722 0.688179 0.229978
42 2 0.175839 0.901485 0.006763
46 1 0.00715376 0.307089 0.511291
47 2 0.00060296 0.32007 0.427158
48 2 0.0259647 0.222652 0.496061
85 1 0.611253 0.159275 0.583166
86 2 0.596905 0.151809 0.657103
87 2 0.655875 0.1043 0.558937
104 2 0.920424 0.932903 0.0119201
145 1 0.265009 0.706082 0.319162
146 2 0.212805 0.661893 0.289228
147 2 0.271087 0.729412 0.173937
178 1 0.632941 0.891841 0.607653
179 2 0.650006 0.961117 0.632358
180 2 0.685517 0.892236 0.645558
4 1 0.545769 0.90238 0.193816
5 2 0.56306 0.857563 0.251568
10 1 0.716016 0.92499 0.299345
49 1 0.538665 0.670969 0.164753
50 2 0.558768 0.749136 0.155133
51 2 0.530183 0.703777 0.102735
92 2 0.399879 0.794363 0.71022
93 2 0.391504 0.891652 0.650112
95 2 0.289635 0.509935 0.79908
106 1 0.870796 0.44419 0.661971
107 2 0.794468 0.448148 0.685683
108 2 0.854522 0.468069 0.574351
116 2 0.799378 0.816984 0.836312
118 1 0.029436 0.863195 0.26391
120 2 0.0613802 0.741028 0.300821
124 1 0.759676 0.599618 0.0605348
125 2 0.723136 0.522359 0.0430148
126 2 0.823306 0.635406 0.0620441
134 2 0.170971 0.754691 0.582541
148 1 0.901144 0.519937 0.216056
149 2 0.940008 0.492726 0.152797
150 2 0.87575 0.584999 0.230787
196 3 0.192956 0.951055 0.294229
14 2 0.659508 0.275459 0.91408
22 1 0.335703 0.613225 0.837913
23 2 0.331565 0.574578 0.90441
24 2 0.318297 0.687882 0.858813
37 1 0.181949 0.154959 0.956826
38 2 0.19947 0.119712 0.890692
39 2 0.255082 0.201116 -0.00489382
40 1 0.260082 1.00048 0.919976
62 2 0.359281 0.378854 0.627101
63 2 0.263721 0.41627 0.701586
64 1 0.952019 0.374035 0.878388
65 2 0.961419 0.304343 0.886908
66 2 0.904899 0.379619 0.801195
109 1 0.543302 0.74437 0.386056
110 2 0.530518 0.821191 0.426554
111 2 0.532611 0.787092 0.32925
154 1 0.287092 0.538753 0.125302
155 2 0.294488 0.550866 0.0504097
156 2 0.203464 0.490516 0.135149
175 1 0.508507 0.135548 0.245775
176 2 0.577765 0.119183 0.243557
177 2 0.464573 0.0604477 0.262384
187 1 0.624118 0.54754 0.578157
188 2 0.617279 0.640122 0.585648
189 2 0.685781 0.563535 0.532381
199 4 0.479128 0.143995 0.93542
200 4 0.116412 0.0382918 0.583782
3 2 0.560506 0.405794 0.908529
13 1 0.668943 0.258527 0.841164
15 2 0.632076 0.23085 0.784611
34 1 0.765605 0.602122 0.794491
35 2 0.841455 0.581097 0.821995
36 2 0.797234 0.665558 0.765952
55 1 0.708263 0.14873 0.391577
56 2 0.816616 0.118151 0.411587
57 2 0.812682 0.0840602 0.339145
69 2 0.383858 0.924479 0.123768
76 1 0.850899 0.242187 0.53639
77 2 0.926923 0.233318 0.552689
88 1 0.711995 0.348473 0.550671
89 2 0.677494 0.335622 0.491352
90 2 0.671706 0.408547 0.552247
112 1 0.368558 0.128992 0.666507
113 2 0.3277 0.187216 0.68268
114 2 0.335644 0.126915 0.610754
121 1 0.863264 0.646597 0.629339
122 2 0.877561 0.586868 0.663724
123 2 0.854554 0.630205 0.557713
129 2 0.527851 0.240071 0.482542
130 1 0.833977 0.0163512 0.895517
132 2 0.799661 0.996037 0.952495
181 1 0.0164973 0.554376 0.518597
182 2 0.0230054 0.522498 0.587365
183 2 0.043625 0.498739 0.469112
184 1 0.912635 0.232984 0.134304
195 3 0.369431 0.826928 0.0682433
31 1 0.232714 0.623231 0.575208
32 2 0.160787 0.629411 0.518881
33 2 0.24051 0.673021 0.518199
41 2 0.24321 0.922355 0.875052
61 1 0.337378 0.367573 0.70309
70 1 0.00310799 0.103609 0.411969
71 2 0.949738 0.150921 0.423372
72 2 0.0425069 0.122343 0.350184
79 1 0.197588 0.395798 0.487165
80 2 0.244756 0.436644 0.446002
81 2 0.253053 0.319582 0.498073
96 2 0.317559 0.498035 0.700609
100 1 0.434419 0.90993 0.532409
102 2 0.428218 0.988654 0.564003
128 2 0.552701 0.268334 0.395184
151 1 0.0938104 0.544733 0.930425
152 2 0.0432461 0.579343 0.895823
153 2 0.0672942 0.489585 0.88083
166 1 0.993524 0.724805 0.887988
167 2 0.976844 0.680937 0.938061
168 2 0.0102159 0.689368 0.818832
190 1 0.243833 0.782577 0.837022
191 2 0.282451 0.797967 0.765811
192 2 0.302622 0.785627 0.874101
194 3 0.799692 0.787689 0.527279
201 4 0.0701602 0.976768 0.818822
1 1 0.603392 0.463264 0.927259
2 2 0.57968 0.514185 0.994096
6 2 0.600306 0.942079 0.174401
52 1 0.612941 0.976238 0.844985
53 2 0.6639 0.94422 0.792387
54 2 0.603126 0.963012 0.916738
78 2 0.786744 0.312117 0.562565
94 1 0.261718 0.513527 0.731665
101 2 0.378757 0.844477 0.495827
115 1 0.796759 0.840442 0.903065
117 2 0.775092 0.806627 0.95366
119 2 0.0615541 0.741063 0.300839
127 1 0.490084 0.252417 0.429
131 2 0.819048 0.944026 0.857101
139 1 0.175396 0.884158 0.0179844
140 2 0.102879 0.914522 0.0342889
141 2 0.247278 0.977842 0.92488
157 1 0.0464513 0.561055 0.137676
158 2 -0.00835288 0.625302 0.134179
159 2 0.040549 0.549096 0.0555413
163 1 0.558519 0.697417 0.834102
164 2 0.596504 0.66078 0.882383
165 2 0.598155 0.758986 0.842559
ITEM: TIMESTEP
400
ITEM: NUMBER OF ATOMS
202
ITEM: BOX BOUNDS pp pp pp
-1.6070000000000001e-01 1.2263700000000000e+01
8.8669999999999999e-02 1.2513070000000001e+01
-1.0499200000000000e-01 1.2319407999999999e+01
ITEM: ATOMS id type xs ys zs
7 1 0.135423 0.278603 0.852229
8 2 0.140142 0.353267 0.85396
9 2 0.166421 0.243757 0.932863
26 2 0.858024 0.742424 0.220448
58 1 0.539525 0.401651 0.181445
59 2 0.530008 0.350188 0.230984
60 2 0.478134 0.37271 0.14207
73 1 0.336473 0.0782745 0.373302
74 2 0.322628 0.0804263 0.294585
75 2 0.260148 0.0905699 0.356431
82 1 0.957721 0.289951 0.435191
83 2 0.902131 0.275254 0.373552
84 2 0.0427672 0.314873 0.427624
103 1 0.862754 0.818117 0.0755247
105 2 0.817187 0.864349 0.0113775
136 1 0.249525 0.224688 0.267302
137 2 0.270779 0.161716 0.275305
138 2 0.28322 0.246611 0.202818
142 1 0.0679394 0.409776 0.163656
143 2 0.13162 0.428087 0.117082
144 2 0.11125 0.366973 0.193637
193 3 0.299747 0.282584 0.554803
198 4 0.697026 0.508015 0.30631
202 4 0.841456 0.0453794 0.694168
11 2 0.61976 0.932559 0.568499
43 1 0.819796 0.133443 0.374358
44 2 0.697101 0.137318 0.398905
45 2 0.773334 0.0421315 0.337852
67 1 0.284887 0.963483 0.198062
68 2 0.318308 0.907564 0.132057
91 1 0.401597 0.824853 0.609363
97 1 0.370657 0.416752 0.483875
98 2 0.43059 0.359478 0.458963
99 2 0.335594 0.378734 0.54103
133 1 0.211967 0.74938 0.55796
135 2 0.182141 0.815694 0.594744
160 1 0.723876 0.155392 0.984152
161 2 0.661484 0.166945 0.0315533
162 2 0.752495 0.22869 0.958004
169 1 0.863149 0.113272 0.142158
170 2 0.792798 0.170155 0.10358
171 2 0.919631 0.208552 0.124978
172 1 0.270997 0.397032 0.943823
173 2 0.298253 0.330944 0.909327
174 2 0.318711 0.408902 1.00137
185 2 0.865922 0.130056 0.138738
186 2 0.865911 0.130066 0.138701
197 3 0.313816 0.284418 0.123286
12 2 0.61528 0.860926 0.461581
16 1 0.0736811 0.715399 0.294023
17 2 0.045432 0.84403 0.296136
18 2 0.0840522 0.82167 0.335078
19 1 0.135386 0.452299 0.354013
20 2 0.0672083 0.418045 0.337758
21 2 0.131741 0.502699 0.415889
25 1 0.828272 0.660361 0.19168
27 2 0.890973 0.616572 0.16871
28 1 0.265227 0.733903 0.13785
29 2 0.274491 0.803499 0.189167
30 2 0.309395 0.727642 0.264739
42 2 0.195899 0.929939 0.988082
46 1 0.129134 0.320437 0.625878
47 2 0.197763 0.31373 0.636358
48 2 0.114551 0.342516 0.700241
85 1 0.558662 0.237387 0.609905
86 2 0.596546 0.287725 0.659819
87 2 0.603079 0.171237 0.620461
104 2 0.912246 0.875453 0.0716682
145 1 0.330097 0.731938 0.277889
146 2 0.255954 0.704638 0.298419
147 2 0.271307 0.746482 0.15295
178 1 0.66328 0.932776 0.687606
179 2 0.7017 0.88441 0.722384
180 2 0.604721 0.985383 0.690734
4 1 0.535172 0.90132 0.225481
5 2 0.595432 0.876245 0.205289
10 1 0.665175 0.928935 0.501278
49 1 0.615187 0.6933 0.152134
50 2 0.661256 0.672573 0.110341
51 2 0.560963 0.69992 0.0838629