LAMMPS (23 Jun 2022 - Update 2)
Reading data file ...
  orthogonal box = (-0.1607 0.08867 -0.104992) to (22.2637 22.51307 22.319408)
  1 by 1 by 1 MPI processor grid
  reading atoms ...
  192 atoms
  scanning bonds ...
  2 = max bonds/atom
  scanning angles ...
  1 = max angles/atom
  reading bonds ...
  128 bonds
  reading angles ...
  64 angles
Finding 1-2 1-3 1-4 neighbors ...
  special bond factors lj:    0        0        0       
  special bond factors coul:  0        0        0       
     2 = max # of 1-2 neighbors
     1 = max # of 1-3 neighbors
     1 = max # of 1-4 neighbors
     2 = max # of special neighbors
  special bonds CPU = 0.000 seconds
  read_data CPU = 0.006 seconds
PPPM initialization ...
  extracting TIP4P info from pair style
  using 12-bit tables for long-range coulomb (../kspace.cpp:342)
  G vector (1/distance) = 0.33340621
  grid = 15 15 15
  stencil order = 5
  estimated absolute RMS force accuracy = 0.021823542
  estimated relative force accuracy = 6.5720947e-05
  using double precision KISS FFT
  3d grid and FFT values/proc = 10648 3375
Generated 0 of 1 mixed pair_coeff terms from geometric mixing rule
Neighbor list info ...
  update every 1 steps, delay 10 steps, check yes
  max neighbors/atom: 2000, page size: 100000
  master list distance cutoff = 10.294299
  ghost atom cutoff = 10.294299
  binsize = 5.1471495, bins = 5 5 5
  1 neighbor lists, perpetual/occasional/extra = 1 0 0
  (1) pair lj/cut/tip4p/long, perpetual
      attributes: half, newton on
      pair build: half/bin/newton
      stencil: half/bin/3d
      bin: standard
Setting up Verlet run ...
  Unit style    : real
  Current step  : 0
  Time step     : 0.5
Per MPI rank memory allocation (min/avg/max) = 9.017 | 9.017 | 9.017 Mbytes
   Step          Temp          Volume         Press         Density         TotEng    
         0   300            11276.193     -934.88609      0.16978935    -220.71332    
       100   363.48434      11276.193      842.21822      0.16978935    -221.0443     
       200   326.28606      11276.193      649.09042      0.16978935    -220.60191    
       300   374.20846      11276.193      61.068223      0.16978935    -220.91232    
       400   360.1182       11276.193     -1602.914       0.16978935    -220.84716    
       500   406.73806      11276.193      441.76378      0.16978935    -220.89686    
       600   373.20117      11276.193     -160.90715      0.16978935    -220.93822    
       700   398.65305      11276.193     -352.16344      0.16978935    -220.88968    
       800   392.93395      11276.193     -70.464285      0.16978935    -221.05454    
       900   399.95307      11276.193      528.27833      0.16978935    -220.88566    
      1000   393.38511      11276.193      463.45486      0.16978935    -221.05972    
      1100   370.94157      11276.193     -832.81082      0.16978935    -220.84343    
      1200   355.51834      11276.193     -1304.22        0.16978935    -220.65239    
      1300   371.07096      11276.193      538.46179      0.16978935    -221.03168    
      1400   370.91335      11276.193      375.73034      0.16978935    -220.87096    
      1500   349.7532       11276.193      258.03531      0.16978935    -220.75719    
      1600   352.4474       11276.193     -777.00121      0.16978935    -220.91866    
      1700   385.38552      11276.193     -782.33364      0.16978935    -221.04366    
      1800   364.09158      11276.193      1173.7121      0.16978935    -220.79346    
      1900   347.14222      11276.193     -480.17877      0.16978935    -220.46306    
      2000   362.38859      11276.193     -175.50964      0.16978935    -220.80808    
      2100   348.55819      11276.193     -159.51137      0.16978935    -220.66842    
      2200   383.2177       11276.193     -67.391266      0.16978935    -221.17836    
      2300   374.81944      11276.193      141.08737      0.16978935    -220.8131     
      2400   346.42345      11276.193     -1120.4173      0.16978935    -220.68933    
      2500   382.69078      11276.193      1020.0615      0.16978935    -220.76954    
      2600   379.57364      11276.193     -182.93066      0.16978935    -220.8041     
      2700   369.0045       11276.193     -118.30442      0.16978935    -221.1047     
      2800   374.18897      11276.193      34.620977      0.16978935    -221.13282    
      2900   358.42631      11276.193     -833.5271       0.16978935    -220.514      
      3000   367.69797      11276.193     -492.11544      0.16978935    -220.76976    
      3100   399.09601      11276.193      1618.967       0.16978935    -221.03138    
      3200   338.17328      11276.193     -1213.4373      0.16978935    -220.65756    
      3300   361.47087      11276.193     -437.1503       0.16978935    -220.81524    
      3400   396.72853      11276.193      341.07205      0.16978935    -220.71318    
      3500   408.13073      11276.193     -256.41906      0.16978935    -220.9881     
      3600   364.65465      11276.193      596.24987      0.16978935    -220.62335    
      3700   366.65854      11276.193      752.7639       0.16978935    -220.58959    
      3800   378.58344      11276.193     -42.45597       0.16978935    -220.76548    
      3900   398.20689      11276.193     -984.03354      0.16978935    -220.83469    
      4000   366.51511      11276.193      716.91533      0.16978935    -220.88262    
      4100   383.31217      11276.193      625.62258      0.16978935    -221.22551    
      4200   363.66375      11276.193     -1419.3515      0.16978935    -220.77478    
      4300   374.39623      11276.193      364.48003      0.16978935    -220.90966    
      4400   363.1384       11276.193      677.3992       0.16978935    -220.6009     
      4500   366.68743      11276.193     -263.11176      0.16978935    -220.6212     
      4600   366.34777      11276.193      798.5789       0.16978935    -220.33746    
      4700   353.84259      11276.193     -654.78672      0.16978935    -220.26062    
      4800   343.14641      11276.193      204.5354       0.16978935    -220.49458    
      4900   384.51806      11276.193      2.5950127      0.16978935    -220.82567    
      5000   369.91052      11276.193     -190.54091      0.16978935    -220.54862    
      5100   360.09764      11276.193      45.493375      0.16978935    -220.55489    
      5200   402.55358      11276.193     -1570.0675      0.16978935    -220.93884    
      5300   355.55249      11276.193      838.84294      0.16978935    -220.59247    
      5400   373.77021      11276.193      179.24982      0.16978935    -220.83479    
      5500   375.11785      11276.193      480.90331      0.16978935    -220.69269    
      5600   378.10281      11276.193      308.47693      0.16978935    -220.80891    
      5700   386.48907      11276.193     -1358.1661      0.16978935    -220.69217    
      5800   357.48836      11276.193      354.29725      0.16978935    -220.5698     
      5900   375.35965      11276.193      333.07276      0.16978935    -220.5574     
      6000   378.14422      11276.193      287.4425       0.16978935    -220.60604    
      6100   352.35574      11276.193     -1560.5744      0.16978935    -220.6774     
      6200   364.06826      11276.193      1196.1887      0.16978935    -220.48748    
      6300   367.4097       11276.193     -22.104811      0.16978935    -220.52637    
      6400   401.71471      11276.193      83.133839      0.16978935    -220.6953     
      6500   406.26364      11276.193     -63.758049      0.16978935    -220.92093    
      6600   390.51345      11276.193     -528.37453      0.16978935    -220.87129    
      6700   360.90378      11276.193     -639.70327      0.16978935    -220.94273    
      6800   344.04216      11276.193      1680.7975      0.16978935    -220.66711    
      6900   375.63079      11276.193     -1364.0064      0.16978935    -220.73031    
      7000   390.97129      11276.193      654.91895      0.16978935    -220.85704    
      7100   405.65614      11276.193     -408.6281       0.16978935    -221.01774    
      7200   356.94928      11276.193      512.77437      0.16978935    -220.53206    
      7300   421.09493      11276.193      787.4416       0.16978935    -220.99564    
      7400   362.53325      11276.193      518.62908      0.16978935    -220.7738     
      7500   383.31703      11276.193     -958.24574      0.16978935    -220.89524    
      7600   386.48279      11276.193     -192.49956      0.16978935    -220.82108    
      7700   353.77023      11276.193     -382.15942      0.16978935    -220.49795    
      7800   324.32836      11276.193     -157.01729      0.16978935    -220.57309    
      7900   360.65275      11276.193     -1343.291       0.16978935    -220.65686    
      8000   379.25713      11276.193      781.93347      0.16978935    -220.72161    
      8100   376.68615      11276.193      164.72059      0.16978935    -220.79167    
      8200   394.4231       11276.193      1003.2584      0.16978935    -220.74169    
      8300   397.18552      11276.193      39.666331      0.16978935    -220.97631    
      8400   367.792        11276.193     -953.82332      0.16978935    -220.74646    
      8500   390.50254      11276.193     -176.68848      0.16978935    -220.85832    
      8600   399.86806      11276.193      726.3339       0.16978935    -221.05788    
      8700   370.13228      11276.193      77.572452      0.16978935    -220.60565    
      8800   389.70424      11276.193     -1098.2601      0.16978935    -220.75681    
      8900   358.87124      11276.193     -215.48072      0.16978935    -220.49402    
      9000   358.45847      11276.193      587.47769      0.16978935    -220.43622    
      9100   337.99768      11276.193     -1001.9386      0.16978935    -220.35038    
      9200   361.1353       11276.193     -650.77503      0.16978935    -220.60576    
      9300   345.37986      11276.193      1330.3923      0.16978935    -220.40136    
      9400   344.53347      11276.193     -515.84167      0.16978935    -220.55336    
      9500   348.11307      11276.193      0.46596461     0.16978935    -220.64555    
      9600   355.3826       11276.193     -862.32046      0.16978935    -220.6811     
      9700   362.77106      11276.193      69.89586       0.16978935    -220.58198    
      9800   370.07941      11276.193      539.82693      0.16978935    -220.6526     
      9900   366.82833      11276.193     -303.77513      0.16978935    -220.67506    
     10000   363.55255      11276.193      1755.3561      0.16978935    -220.71847    
Loop time of 16.7542 on 1 procs for 10000 steps with 192 atoms

Performance: 25.785 ns/day, 0.931 hours/ns, 596.864 timesteps/s
100.0% CPU use with 1 MPI tasks x no OpenMP threads

MPI task timing breakdown:
Section |  min time  |  avg time  |  max time  |%varavg| %total
---------------------------------------------------------------
Pair    | 5.2657     | 5.2657     | 5.2657     |   0.0 | 31.43
Bond    | 0.12209    | 0.12209    | 0.12209    |   0.0 |  0.73
Kspace  | 11.103     | 11.103     | 11.103     |   0.0 | 66.27
Neigh   | 0.085281   | 0.085281   | 0.085281   |   0.0 |  0.51
Comm    | 0.086287   | 0.086287   | 0.086287   |   0.0 |  0.52
Output  | 0.019532   | 0.019532   | 0.019532   |   0.0 |  0.12
Modify  | 0.045937   | 0.045937   | 0.045937   |   0.0 |  0.27
Other   |            | 0.02661    |            |       |  0.16

Nlocal:            192 ave         192 max         192 min
Histogram: 1 0 0 0 0 0 0 0 0 0
Nghost:           1114 ave        1114 max        1114 min
Histogram: 1 0 0 0 0 0 0 0 0 0
Neighs:          13290 ave       13290 max       13290 min
Histogram: 1 0 0 0 0 0 0 0 0 0

Total # of neighbors = 13290
Ave neighs/atom = 69.21875
Ave special neighs/atom = 2
Neighbor list builds = 209
Dangerous builds = 0
PPPM initialization ...
  extracting TIP4P info from pair style
  using 12-bit tables for long-range coulomb (../kspace.cpp:342)
  G vector (1/distance) = 0.33340621
  grid = 15 15 15
  stencil order = 5
  estimated absolute RMS force accuracy = 0.021823542
  estimated relative force accuracy = 6.5720947e-05
  using double precision KISS FFT
  3d grid and FFT values/proc = 10648 3375
Generated 0 of 1 mixed pair_coeff terms from geometric mixing rule
Setting up Verlet run ...
  Unit style    : real
  Current step  : 10000
  Time step     : 0.5
Per MPI rank memory allocation (min/avg/max) = 9.018 | 9.018 | 9.018 Mbytes
   Step          Temp          Volume         Press         Density         TotEng    
     10000   363.55255      11276.193      1755.3561      0.16978935    -220.71847    
     10100   296.58282      11276.193     -307.29253      0.16978935    -280.23269    
     10200   278.53235      11276.193     -87.257395      0.16978935    -329.21986    
     10300   309.11077      11276.193      204.67096      0.16978935    -294.69823    
     10400   300.4437       11276.193      485.46702      0.16978935    -315.21684    
     10500   287.57952      11276.193     -730.40081      0.16978935    -317.61413    
     10600   278.44269      11276.193      217.49902      0.16978935    -323.74389    
     10700   272.1591       11276.193      449.21137      0.16978935    -344.09169    
     10800   319.45162      11276.193      501.39877      0.16978935    -318.32048    
     10900   280.54316      11276.193      593.00548      0.16978935    -340.59393    
     11000   280.96672      11276.193     -411.91944      0.16978935    -350.78602    
     11100   298.17879      11276.193      329.11873      0.16978935    -323.52307    
     11200   303.01211      11276.193     -373.73459      0.16978935    -323.11976    
     11300   301.09636      11276.193      151.24061      0.16978935    -304.73506    
     11400   292.14162      11276.193     -1057.5654      0.16978935    -321.10182    
     11500   320.30709      11276.193      719.23503      0.16978935    -324.47244    
     11600   285.64046      11276.193     -206.5453       0.16978935    -333.67046    
     11700   301.75939      11276.193     -158.13492      0.16978935    -328.41541    
     11800   291.75161      11276.193     -439.87917      0.16978935    -328.67495    
     11900   289.06446      11276.193      718.98662      0.16978935    -291.70504    
     12000   272.13634      11276.193      58.555164      0.16978935    -328.72455    
     12100   290.44859      11276.193     -1140.8777      0.16978935    -301.50571    
     12200   294.64492      11276.193     -1190.4004      0.16978935    -311.16575    
     12300   316.7196       11276.193      670.16197      0.16978935    -324.43503    
     12400   267.6891       11276.193      691.69852      0.16978935    -345.25833    
     12500   337.03271      11276.193      561.58013      0.16978935    -325.53049    
     12600   306.6082       11276.193     -762.03353      0.16978935    -346.15315    
     12700   293.96496      11276.193     -37.460948      0.16978935    -332.25255    
     12800   286.79695      11276.193      534.85783      0.16978935    -351.33594    
     12900   286.7187       11276.193     -8.3484733      0.16978935    -365.98666    
     13000   315.68815      11276.193     -257.48626      0.16978935    -336.70401    
     13100   288.2194       11276.193     -96.283571      0.16978935    -332.42       
     13200   333.68657      11276.193      584.73379      0.16978935    -317.46724    
     13300   289.82546      11276.193     -175.32769      0.16978935    -332.98842    
     13400   264.02576      11276.193     -358.70203      0.16978935    -345.49271    
     13500   293.65854      11276.193      232.91817      0.16978935    -333.11326    
     13600   283.32099      11276.193      790.58791      0.16978935    -345.84288    
     13700   301.44087      11276.193     -482.44215      0.16978935    -351.03651    
     13800   279.14677      11276.193      182.0728       0.16978935    -338.87737    
     13900   313.51142      11276.193     -105.92786      0.16978935    -340.13259    
     14000   298.71231      11276.193      1356.2233      0.16978935    -322.42692    
     14100   329.79965      11276.193     -1242.8394      0.16978935    -306.01235    
     14200   301.70943      11276.193     -443.55044      0.16978935    -327.01958    
     14300   275.40426      11276.193     -169.19841      0.16978935    -351.23446    
     14400   276.44295      11276.193      678.45279      0.16978935    -360.66587    
     14500   295.79416      11276.193     -273.86583      0.16978935    -337.8952     
     14600   304.44123      11276.193     -835.22164      0.16978935    -317.8021     
     14700   284.24108      11276.193      587.78516      0.16978935    -348.73174    
     14800   313.74541      11276.193      1116.8259      0.16978935    -337.00795    
     14900   311.38146      11276.193     -563.60181      0.16978935    -328.27861    
     15000   272.77037      11276.193     -1684.2323      0.16978935    -355.6965     
     15100   330.99693      11276.193     -619.69913      0.16978935    -318.54342    
     15200   287.67988      11276.193     -193.97233      0.16978935    -336.52109    
     15300   267.25486      11276.193      819.80836      0.16978935    -314.22725    
     15400   299.13177      11276.193     -80.807433      0.16978935    -308.60343    
     15500   307.34248      11276.193     -1061.3255      0.16978935    -292.24406    
     15600   288.50778      11276.193     -272.79385      0.16978935    -350.14101    
     15700   339.74625      11276.193      30.982285      0.16978935    -313.28823    
     15800   299.12166      11276.193     -244.28132      0.16978935    -344.98433    
     15900   314.77815      11276.193      711.19566      0.16978935    -315.84089    
     16000   303.83147      11276.193      1315.7336      0.16978935    -324.8432     
     16100   303.58357      11276.193      298.56634      0.16978935    -322.70983    
     16200   316.51278      11276.193     -207.83109      0.16978935    -316.94087    
     16300   290.81462      11276.193     -467.57944      0.16978935    -322.41529    
     16400   328.16004      11276.193      249.94518      0.16978935    -309.53797    
     16500   289.9328       11276.193     -394.79231      0.16978935    -347.67279    
     16600   309.79057      11276.193     -87.850345      0.16978935    -327.82849    
     16700   267.06103      11276.193     -270.46977      0.16978935    -342.97295    
     16800   288.48141      11276.193      898.71498      0.16978935    -339.92198    
     16900   315.7961       11276.193      1002.3878      0.16978935    -320.34351    
     17000   268.20852      11276.193     -1121.3519      0.16978935    -351.07679    
     17100   261.23473      11276.193      3.3139014      0.16978935    -359.61679    
     17200   298.09139      11276.193      205.49894      0.16978935    -340.62168    
     17300   327.05992      11276.193     -626.36887      0.16978935    -343.57571    
     17400   303.21684      11276.193      669.88336      0.16978935    -342.24043    
     17500   301.08359      11276.193      614.32529      0.16978935    -354.15181    
     17600   263.9207       11276.193      128.69934      0.16978935    -361.29288    
     17700   267.68487      11276.193     -229.24597      0.16978935    -377.30548    
     17800   305.70943      11276.193      1057.659       0.16978935    -363.749      
     17900   287.94538      11276.193      257.77193      0.16978935    -369.27381    
     18000   306.37019      11276.193      200.87303      0.16978935    -348.75754    
     18100   314.65496      11276.193     -596.99097      0.16978935    -350.58457    
     18200   266.90735      11276.193     -131.11444      0.16978935    -351.133      
     18300   293.98924      11276.193     -199.09282      0.16978935    -342.81816    
     18400   278.76212      11276.193     -350.13542      0.16978935    -343.88337    
     18500   298.33312      11276.193     -366.36729      0.16978935    -358.46399    
     18600   317.38998      11276.193      753.02118      0.16978935    -324.98493    
     18700   336.32668      11276.193     -72.596008      0.16978935    -318.93014    
     18800   278.56458      11276.193      74.591554      0.16978935    -354.81982    
     18900   300.68535      11276.193     -69.076445      0.16978935    -329.79461    
     19000   294.69596      11276.193     -80.609896      0.16978935    -340.09635    
     19100   292.49247      11276.193     -1038.3792      0.16978935    -354.88194    
     19200   332.99166      11276.193      483.7748       0.16978935    -336.80944    
     19300   320.54257      11276.193      84.636432      0.16978935    -346.68149    
     19400   282.41904      11276.193      336.76914      0.16978935    -375.26926    
     19500   294.82767      11276.193      417.63878      0.16978935    -357.41868    
     19600   295.96915      11276.193     -505.04774      0.16978935    -338.5177     
     19700   273.5228       11276.193     -58.698155      0.16978935    -364.04854    
     19800   324.65493      11276.193      339.74396      0.16978935    -338.60089    
     19900   301.38978      11276.193     -306.90416      0.16978935    -360.30742    
     20000   300.69953      11276.193     -578.74904      0.16978935    -358.94858    
Loop time of 16.727 on 1 procs for 10000 steps with 192 atoms

Performance: 25.826 ns/day, 0.929 hours/ns, 597.834 timesteps/s
100.0% CPU use with 1 MPI tasks x no OpenMP threads

MPI task timing breakdown:
Section |  min time  |  avg time  |  max time  |%varavg| %total
---------------------------------------------------------------
Pair    | 5.4055     | 5.4055     | 5.4055     |   0.0 | 32.32
Bond    | 0.1219     | 0.1219     | 0.1219     |   0.0 |  0.73
Kspace  | 10.93      | 10.93      | 10.93      |   0.0 | 65.34
Neigh   | 0.073065   | 0.073065   | 0.073065   |   0.0 |  0.44
Comm    | 0.08521    | 0.08521    | 0.08521    |   0.0 |  0.51
Output  | 0.019923   | 0.019923   | 0.019923   |   0.0 |  0.12
Modify  | 0.064292   | 0.064292   | 0.064292   |   0.0 |  0.38
Other   |            | 0.02689    |            |       |  0.16

Nlocal:            192 ave         192 max         192 min
Histogram: 1 0 0 0 0 0 0 0 0 0
Nghost:           1156 ave        1156 max        1156 min
Histogram: 1 0 0 0 0 0 0 0 0 0
Neighs:          14342 ave       14342 max       14342 min
Histogram: 1 0 0 0 0 0 0 0 0 0

Total # of neighbors = 14342
Ave neighs/atom = 74.697917
Ave special neighs/atom = 2
Neighbor list builds = 182
Dangerous builds = 0
Total wall time: 0:00:33
