LAMMPS data file via write_data, version 9 Dec 2014, timestep = 20000

2048 atoms
1 atom types

-4.1005168617351373e-02 2.9153005168617121e+01 xlo xhi
-4.1005168617351373e-02 2.9153005168617121e+01 ylo yhi
-4.1005168617351373e-02 2.9153005168617121e+01 zlo zhi

Masses

1 63.546

Atoms # atomic

8 1 3.5506827979121711e+00 1.7213134524921205e+00 1.8373202680572092e+00 0 0 0
35 1 1.7895030060333368e+00 3.6776386591781804e+00 1.7539828288375254e+00 0 0 0
258 1 1.8881127583695114e+00 1.7174525523672843e+00 3.6056784358774014e+00 0 0 0
293 1 3.5769875803844728e+00 3.6520304640763768e+00 3.6698173192995820e+00 0 0 0
289 1 -2.8595366356652569e-02 3.6261886852784770e+00 3.5549260703730350e+00 0 0 0
37 1 3.5688914307848618e+00 3.5876146098003741e+00 3.2618696381644385e-03 0 0 0
5 1 3.7372378700644195e+00 -1.9068161147713709e-02 1.3249228587641014e-02 0 0 0
12 1 7.3145398430165036e+00 1.7563485390110094e+00 1.9116943528530037e+00 0 0 0
39 1 5.3185197857386930e+00 3.5750731705359295e+00 1.8017205090552808e+00 0 0 0
262 1 5.2862475832294180e+00 1.6629013478568220e+00 3.4640502030467757e+00 0 0 0
297 1 7.2259695933381254e+00 3.6646089646377784e+00 3.6340239972368709e+00 0 0 0
7 1 5.4687165778049707e+00 2.9175467397693194e-02 1.7389710301081620e+00 0 0 0
41 1 7.1923378582162387e+00 3.5508955964541054e+00 -2.7687760840296699e-02 0 0 0
6 1 5.4665593765478633e+00 1.8402950088834087e+00 1.7199599352565542e-02 0 0 0
16 1 1.0817409404845346e+01 1.7529670156002881e+00 1.7907626421053522e+00 0 0 0
43 1 9.0801328423339971e+00 3.6827324744846517e+00 1.8377945685130834e+00 0 0 0
266 1 9.0503751114290267e+00 1.7038748578989433e+00 3.6570047709466995e+00 0 0 0
301 1 1.0925470952071546e+01 3.3929437902144985e+00 3.7415473481312667e+00 0 0 0
10 1 9.0400234000644630e+00 1.8515723183331536e+00 -3.6154235098806123e-02 0 0 0
11 1 9.0176272413256431e+00 -5.5342594668964518e-03 1.7507309731036234e+00 0 0 0
20 1 1.4619833656601884e+01 1.6062910821930467e+00 1.8899133869523725e+00 0 0 0
47 1 1.2662673074588824e+01 3.5655662449073282e+00 1.7352453241123780e+00 0 0 0
51 1 1.6405083924622247e+01 3.6298697797575623e+00 1.7668315032658024e+00 0 0 0
270 1 1.2678309562518015e+01 1.7462654881733546e+00 3.5268450926587964e+00 0 0 0
274 1 1.6439217304344233e+01 1.7409169035621361e+00 3.6224694319350577e+00 0 0 0
305 1 1.4471362378220592e+01 3.6077313218182212e+00 3.5555733388384376e+00 0 0 0
49 1 1.4605883568781431e+01 3.6578047005912131e+00 1.5941552891976513e-01 0 0 0
15 1 1.2651905321616479e+01 9.2852067938511765e-03 1.7078519717759042e+00 0 0 0
24 1 1.8361911953378588e+01 1.8471496203333841e+00 1.7025948072129138e+00 0 0 0
55 1 2.0178915328812522e+01 3.6273221359465766e+00 1.8158230394362191e+00 0 0 0
278 1 2.0125486097041460e+01 1.6000377086501887e+00 3.6967716978551342e+00 0 0 0
309 1 1.8246402369204915e+01 3.5036109831864515e+00 3.5053070524088463e+00 0 0 0
28 1 2.1800092860666254e+01 1.6780139007796804e+00 1.8030879032941347e+00 0 0 0
59 1 2.3545863326302396e+01 3.6708921429198256e+00 1.8490636560920757e+00 0 0 0
282 1 2.3595831997232985e+01 1.5902986554035059e+00 3.5686198614330449e+00 0 0 0
313 1 2.1737363337914218e+01 3.4859005295151104e+00 3.7141941784973422e+00 0 0 0
26 1 2.3715171925333067e+01 1.8172927360004423e+00 4.7433885357211353e-03 0 0 0
4 1 2.9093571712424868e+01 1.7048806164899053e+00 1.8182798810013223e+00 -1 0 0
32 1 2.5413990750430152e+01 1.7807910347337912e+00 1.7814371553611577e+00 0 0 0
63 1 2.7334122144107816e+01 3.6108777991593008e+00 1.8308707928936980e+00 0 0 0
286 1 2.7330246438152223e+01 1.7137626512305701e+00 3.4978228145637780e+00 0 0 0
317 1 2.5399328330219625e+01 3.6077635851813175e+00 3.5328094766569107e+00 0 0 0
285 1 2.5485091293590308e+01 -1.9054293395440892e-02 3.6518172170451662e+00 0 0 0
61 1 2.5387536441602244e+01 3.6824813192377803e+00 4.7251305124582588e-02 0 0 0
30 1 2.7168261195179781e+01 1.7049473269243147e+00 5.4599880485915603e-02 0 0 0
40 1 3.5282747590565502e+00 5.4472836849043222e+00 1.9048278943911112e+00 0 0 0
67 1 1.8631791221400649e+00 7.3671419543575452e+00 1.8515641859357903e+00 0 0 0
290 1 1.6960396259825772e+00 5.4326052101717801e+00 3.5960879160977468e+00 0 0 0
325 1 3.5615993241733821e+00 7.1638767281410196e+00 3.6379272026603586e+00 0 0 0
36 1 5.4325773174600023e-02 5.4930296408248722e+00 1.7110019157834049e+00 0 0 0
69 1 3.6523122695714010e+00 7.1035337253826762e+00 6.9794397555154736e-02 0 0 0
34 1 1.6196819560484650e+00 5.5460041424060442e+00 -2.0049286085887887e-02 0 0 0
44 1 7.3971327797766975e+00 5.2883054180267948e+00 1.8715512487545010e+00 0 0 0
71 1 5.4567255983160834e+00 7.1169722237382738e+00 1.8063478451040875e+00 0 0 0
294 1 5.5213072578656437e+00 5.3138624319165819e+00 3.6190138909852800e+00 0 0 0
329 1 7.1789136272795222e+00 7.2714086729013578e+00 3.5592731659687953e+00 0 0 0
38 1 5.4206657932854059e+00 5.4524656713263697e+00 3.2132338170424504e-02 0 0 0
48 1 1.0875219983660418e+01 5.3163100317535656e+00 1.7482092853065767e+00 0 0 0
75 1 9.1240497837019205e+00 7.3253962385278442e+00 1.7348545730913751e+00 0 0 0
298 1 9.2018750452171894e+00 5.3749047029993564e+00 3.5955427668692623e+00 0 0 0
333 1 1.1004916584335321e+01 7.1845239618006991e+00 3.5477584890349698e+00 0 0 0
52 1 1.4576016030905807e+01 5.4809882146152384e+00 1.8136742298872253e+00 0 0 0
79 1 1.2717552861870150e+01 7.2767481116000576e+00 1.6548963255594960e+00 0 0 0
83 1 1.6304677709775547e+01 7.3487986743477922e+00 1.8370132597188857e+00 0 0 0
302 1 1.2644962251902191e+01 5.3960899207906685e+00 3.5209450564294427e+00 0 0 0
306 1 1.6359003635409167e+01 5.4618779453515138e+00 3.6982065199308987e+00 0 0 0
337 1 1.4392085122219173e+01 7.2617870645988303e+00 3.5791398838366861e+00 0 0 0
46 1 1.2666325684593286e+01 5.4223194304393374e+00 4.5982306039141774e-03 0 0 0
81 1 1.4414799503239985e+01 7.3896422763539551e+00 -3.0211485079242095e-02 0 0 0
50 1 1.6370086379467416e+01 5.3743930150681791e+00 -8.0945674419592786e-03 0 0 0
56 1 1.8091411548079506e+01 5.6047400850824260e+00 1.8194496967583051e+00 0 0 0
87 1 2.0022647362629016e+01 7.2073219407548361e+00 1.8869969686051824e+00 0 0 0
310 1 2.0065192400227573e+01 5.4239522023340383e+00 3.6177498113676139e+00 0 0 0
341 1 1.8245230254090472e+01 7.2863374418421900e+00 3.6842032168380046e+00 0 0 0
54 1 1.9929760999165516e+01 5.3341278376264700e+00 -1.1800255994717613e-02 0 0 0
60 1 2.1820034717638151e+01 5.4839639432820038e+00 1.8523715116370669e+00 0 0 0
91 1 2.3670009978717928e+01 7.2637226367114174e+00 1.8122095801586025e+00 0 0 0
314 1 2.3626927537265288e+01 5.3603025048515249e+00 3.6331920284860848e+00 0 0 0
345 1 2.1882531472972410e+01 7.2166406357289148e+00 3.7869372911492136e+00 0 0 0
58 1 2.3646339591374534e+01 5.4897567871394122e+00 -3.6741562424423363e-02 0 0 0
89 1 2.1737525124923486e+01 7.1494732944456567e+00 5.9727940150962250e-02 0 0 0
321 1 2.8972493363979062e+01 7.3044378054284591e+00 3.6871087421352415e+00 -1 0 0
65 1 2.9096430561195866e+01 7.3214822060867011e+00 3.8210095932985175e-02 -1 0 0
64 1 2.5422709110313910e+01 5.4970062692365387e+00 1.9332281817980923e+00 0 0 0
95 1 2.7325591495095139e+01 7.2985063628869371e+00 1.6526691425961952e+00 0 0 0
318 1 2.7355551826027522e+01 5.4359895344647544e+00 3.6527877982128234e+00 0 0 0
349 1 2.5511889454937503e+01 7.3561953802234843e+00 3.4959524982827079e+00 0 0 0
62 1 2.7315903328605117e+01 5.3383992524879442e+00 4.4124416095929000e-02 0 0 0
72 1 3.6570604115698906e+00 9.0592904201376623e+00 1.7593833911458661e+00 0 0 0
99 1 1.8634318329957325e+00 1.0790239050004882e+01 1.9604335105095143e+00 0 0 0
322 1 1.6854796368281073e+00 9.0555879631231289e+00 3.6610945992425576e+00 0 0 0
357 1 3.6718723210008135e+00 1.0970219714625557e+01 3.5423089539928556e+00 0 0 0
66 1 1.6877220643749513e+00 9.0995526195719592e+00 2.4848734087898547e-02 0 0 0
68 1 -3.7012729064396101e-02 9.0949548366900235e+00 1.8867256603845572e+00 0 0 0
101 1 3.7103371032626877e+00 1.0760646257573747e+01 8.6261122304077315e-02 0 0 0
76 1 7.2228396781545730e+00 9.0613177970350360e+00 1.8284272799709027e+00 0 0 0
103 1 5.5333625730293337e+00 1.0875571058762519e+01 1.8150299659279328e+00 0 0 0
326 1 5.5078168629872923e+00 9.0172119107031978e+00 3.6835042653433034e+00 0 0 0
361 1 7.3523207198718712e+00 1.0972684412033452e+01 3.5536820514400014e+00 0 0 0
80 1 1.0923050513202725e+01 9.2583599789955837e+00 1.7673484376821555e+00 0 0 0
107 1 9.0255056467520500e+00 1.0890597561040515e+01 1.9197812901500730e+00 0 0 0
330 1 9.2128591113913618e+00 9.0215019202215530e+00 3.5244389163984757e+00 0 0 0
365 1 1.0978321373753577e+01 1.1024229792638121e+01 3.6436938125897149e+00 0 0 0
109 1 1.0899069455246048e+01 1.0942217257991325e+01 -9.2582619959031831e-03 0 0 0
84 1 1.4529792693191167e+01 9.1808900392151074e+00 1.7695717671293179e+00 0 0 0
111 1 1.2702203355259602e+01 1.1104907022810783e+01 1.8557031202299719e+00 0 0 0
115 1 1.6388023466564114e+01 1.0793008205764423e+01 1.7587877057998884e+00 0 0 0
334 1 1.2618630547147850e+01 9.0600521771882896e+00 3.4865344062515802e+00 0 0 0
338 1 1.6343020037006553e+01 9.1352491035557879e+00 3.7228888178022403e+00 0 0 0
369 1 1.4490906192102640e+01 1.0899478471712987e+01 3.6444864043967331e+00 0 0 0
82 1 1.6430752198701491e+01 8.9895828319552002e+00 -4.0330036443236850e-02 0 0 0
78 1 1.2705669258527717e+01 9.1202108162280719e+00 -4.4212669454230732e-03 0 0 0
88 1 1.8197510421026749e+01 8.9772024445654708e+00 1.8191258392469767e+00 0 0 0
119 1 1.9994416941789112e+01 1.0809185654890241e+01 1.6951153738208802e+00 0 0 0
342 1 1.9975646600130041e+01 9.0880402256751935e+00 3.6136792536853051e+00 0 0 0
373 1 1.8363928939942227e+01 1.0854155899985084e+01 3.6278365735321150e+00 0 0 0
117 1 1.8139778734902784e+01 1.0873752730844549e+01 -1.7999076547011373e-02 0 0 0
92 1 2.1699201948587287e+01 8.9787822964967905e+00 1.8545653973468403e+00 0 0 0
123 1 2.3533358733443904e+01 1.0925557165049575e+01 1.6920392421788180e+00 0 0 0
346 1 2.3598270876237521e+01 9.1644998232191224e+00 3.6860565106170045e+00 0 0 0
377 1 2.1813461767328683e+01 1.0998728804699265e+01 3.4901392240871387e+00 0 0 0
90 1 2.3613753866752354e+01 9.0431392948769975e+00 4.5897427893749967e-02 0 0 0
353 1 2.9077157271796494e+01 1.1053723067592555e+01 3.4523353560678216e+00 -1 0 0
96 1 2.5481443651928828e+01 9.0816338616000039e+00 1.7658264809476236e+00 0 0 0
127 1 2.7250252646248285e+01 1.0834491451889098e+01 1.7783471257730734e+00 0 0 0
350 1 2.7111200340052164e+01 9.1443178690813411e+00 3.6071227039166609e+00 0 0 0
381 1 2.5317196288377502e+01 1.0935536360584639e+01 3.4252971411980329e+00 0 0 0
97 1 2.9033813939104284e+01 1.0917312902038899e+01 2.2741312086572665e-02 -1 0 0
125 1 2.5587870468978075e+01 1.0977883197292954e+01 1.7741621433736178e-02 0 0 0
104 1 3.5834792658117323e+00 1.2635388472415469e+01 1.6647744373905107e+00 0 0 0
131 1 1.9292560307681723e+00 1.4691673742956686e+01 1.9351362427740721e+00 0 0 0
136 1 3.6971462315078454e+00 1.6484423366920069e+01 1.7498042283225952e+00 0 0 0
354 1 1.8830189253130649e+00 1.2855074778349380e+01 3.6162629054021593e+00 0 0 0
386 1 1.8302147787026670e+00 1.6479263576657594e+01 3.4513623578741695e+00 0 0 0
389 1 3.6271502961452891e+00 1.4510274204215467e+01 3.7384919957300484e+00 0 0 0
130 1 1.7496715816983146e+00 1.6448744078397596e+01 5.9338547805515771e-02 0 0 0
132 1 1.1272944386564662e-01 1.6573032675976435e+01 1.8388456269790856e+00 0 0 0
100 1 3.5819761106137021e-02 1.2748040544700304e+01 1.8414534341693423e+00 0 0 0
98 1 1.6459430412832179e+00 1.2710815577213058e+01 -6.0018981342940259e-03 0 0 0
108 1 7.1912070769318817e+00 1.2657697610341028e+01 1.7770473750271205e+00 0 0 0
135 1 5.3907241051026542e+00 1.4527558589849608e+01 1.7434343653835589e+00 0 0 0
140 1 7.1423713574251462e+00 1.6452814755016782e+01 1.9813101786153129e+00 0 0 0
358 1 5.4225075398223375e+00 1.2810189350888795e+01 3.4918658334317199e+00 0 0 0
390 1 5.4066741538250520e+00 1.6422237151528854e+01 3.5364727029801042e+00 0 0 0
393 1 7.2604504775456356e+00 1.4433146244783785e+01 3.4867769600840224e+00 0 0 0
134 1 5.4155921926197461e+00 1.6417270404126810e+01 8.6140246969429207e-02 0 0 0
112 1 1.0908530634559240e+01 1.2879560550463559e+01 1.7436588245812601e+00 0 0 0
139 1 9.0045786961341641e+00 1.4528406724532358e+01 1.8510524967121758e+00 0 0 0
144 1 1.1033725697920644e+01 1.6443383922791121e+01 1.6631845023434497e+00 0 0 0
362 1 9.2574263036642392e+00 1.2805634606555699e+01 3.6137034299051503e+00 0 0 0
394 1 9.1405008479326710e+00 1.6475688772613069e+01 3.4299656169516139e+00 0 0 0
397 1 1.0982459594629184e+01 1.4610141886099218e+01 3.5150226339235497e+00 0 0 0
138 1 8.8912048367879404e+00 1.6419822265177253e+01 1.7320294757913798e-01 0 0 0
106 1 9.0959598806057844e+00 1.2718129117606406e+01 -1.0927742228161105e-03 0 0 0
116 1 1.4570502023648389e+01 1.2634338449462946e+01 1.7382561241601409e+00 0 0 0
143 1 1.2874600535993013e+01 1.4505669893663212e+01 1.6409450501393521e+00 0 0 0
147 1 1.6388527562637115e+01 1.4553797360925099e+01 1.8806097152692345e+00 0 0 0
148 1 1.4718912162338325e+01 1.6291829696401315e+01 1.8380369195078625e+00 0 0 0
366 1 1.2895601687248465e+01 1.2702578308503814e+01 3.5361063602703813e+00 0 0 0
370 1 1.6229071937718736e+01 1.2541599104179218e+01 3.6305364408051330e+00 0 0 0
398 1 1.2844859507643038e+01 1.6392066349919581e+01 3.6590195224275850e+00 0 0 0
401 1 1.4491374551586532e+01 1.4594646023320360e+01 3.6036670397518735e+00 0 0 0
402 1 1.6442044275130776e+01 1.6427829724192378e+01 3.6457205010226716e+00 0 0 0
146 1 1.6516927112402740e+01 1.6423920455242296e+01 -2.6622455656169164e-02 0 0 0
114 1 1.6349379915718870e+01 1.2752517490306934e+01 -7.4291866222999936e-03 0 0 0
120 1 1.8235477449001628e+01 1.2749141802937787e+01 1.7168395356814448e+00 0 0 0
151 1 2.0085365567438743e+01 1.4500828816864699e+01 1.8036461573220250e+00 0 0 0
152 1 1.8177525863523272e+01 1.6297828496511713e+01 1.8385755558830781e+00 0 0 0
374 1 1.9979973253043660e+01 1.2662847402275053e+01 3.6062477274746643e+00 0 0 0
405 1 1.8354648102041764e+01 1.4486939502570731e+01 3.7120223648958683e+00 0 0 0
406 1 2.0004032140234543e+01 1.6390113343348979e+01 3.6611441995069156e+00 0 0 0
150 1 1.9988355287947968e+01 1.6418565366401197e+01 1.0044171014373635e-01 0 0 0
118 1 2.0005588576228192e+01 1.2730138031938766e+01 2.9281582062281819e-02 0 0 0
124 1 2.1870451938547319e+01 1.2763030438676092e+01 1.6534904416837852e+00 0 0 0
155 1 2.3847453583789303e+01 1.4603974844731210e+01 1.7998861182113577e+00 0 0 0
156 1 2.1842809844513717e+01 1.6318208033434146e+01 1.7758325103807884e+00 0 0 0
378 1 2.3690086818215633e+01 1.2632607860914263e+01 3.6046709782477184e+00 0 0 0
409 1 2.1827933764569110e+01 1.4586149966786108e+01 3.6656752009595452e+00 0 0 0
410 1 2.3733937293993705e+01 1.6449775369422809e+01 3.6122258217881509e+00 0 0 0
154 1 2.3687109450940220e+01 1.6424064430521241e+01 3.5463871250957929e-02 0 0 0
385 1 2.9142563785985942e+01 1.4576065201080720e+01 3.6690783100669258e+00 -1 0 0
128 1 2.5437621079490341e+01 1.2808272283728360e+01 1.7555073146503302e+00 0 0 0
159 1 2.7394679051016709e+01 1.4684845431460221e+01 1.8588285348072813e+00 0 0 0
160 1 2.5449786750151965e+01 1.6510726501900088e+01 1.8167611990728090e+00 0 0 0
382 1 2.7261641556179264e+01 1.2778547325014504e+01 3.6603322664135955e+00 0 0 0
413 1 2.5636130578353573e+01 1.4623302212292135e+01 3.5188533439793681e+00 0 0 0
414 1 2.7356427191382458e+01 1.6463005125822136e+01 3.6566581321372555e+00 0 0 0
129 1 2.9050601000280452e+01 1.4648785674871595e+01 -1.8050485269110142e-02 -1 0 0
157 1 2.5552169328797760e+01 1.4651651393095259e+01 8.3034591927143506e-03 0 0 0
126 1 2.7258810346281628e+01 1.2818970025277704e+01 8.4961715608477706e-02 0 0 0
158 1 2.7433518409445199e+01 1.6390397418122006e+01 -5.8992874812813928e-04 0 0 0
163 1 1.8168462118641706e+00 1.8370299688703916e+01 1.7382114722583384e+00 0 0 0
168 1 3.6711913454131930e+00 2.0168331655597669e+01 1.8595301420877011e+00 0 0 0
418 1 1.7265826020911519e+00 2.0131870114432658e+01 3.6135199586611439e+00 0 0 0
421 1 3.5995651094736481e+00 1.8289709725438797e+01 3.6368252276450828e+00 0 0 0
164 1 -7.1880422982752781e-03 2.0127630216920217e+01 1.8788379541959777e+00 0 0 0
161 1 -1.3660795018540905e-02 1.8288953019602907e+01 -9.5742786398038335e-03 0 0 0
167 1 5.3238543482496521e+00 1.8420832323484980e+01 1.7864190095949495e+00 0 0 0
172 1 7.1540497043233611e+00 2.0026887503897527e+01 1.6792385420473648e+00 0 0 0
422 1 5.4854245149559739e+00 2.0101142853605246e+01 3.6516886456845588e+00 0 0 0
425 1 7.2195804099391108e+00 1.8331946050707060e+01 3.5958405816476993e+00 0 0 0
169 1 7.1674588849704577e+00 1.8184752542676570e+01 1.0631338999800666e-01 0 0 0
171 1 9.1051093684724886e+00 1.8267083994756412e+01 1.9116827413127815e+00 0 0 0
176 1 1.1066952501860866e+01 2.0122067122655430e+01 1.9273662755534740e+00 0 0 0
426 1 9.1870440591304874e+00 2.0094868035989755e+01 3.7820345604650467e+00 0 0 0
429 1 1.1068223309643429e+01 1.8267596647767142e+01 3.5284865522058890e+00 0 0 0
170 1 9.0844724792623790e+00 1.9961213962059539e+01 6.9746776944416153e-02 0 0 0
173 1 1.0881743199525230e+01 1.8259974335739024e+01 6.9509328786973273e-02 0 0 0
175 1 1.2850841130145575e+01 1.8215040799809827e+01 1.5740053549768596e+00 0 0 0
179 1 1.6395364046273052e+01 1.8344749279376288e+01 1.7078091400973667e+00 0 0 0
180 1 1.4485625212025514e+01 1.9976017712935608e+01 1.7530239542928225e+00 0 0 0
430 1 1.2744318373935206e+01 2.0090635599555640e+01 3.6344185963458147e+00 0 0 0
433 1 1.4508983170647124e+01 1.8269649727366783e+01 3.7161796966600416e+00 0 0 0
434 1 1.6298192965468822e+01 2.0121881059682160e+01 3.6407054580557197e+00 0 0 0
183 1 1.9978625894725248e+01 1.8129411584831999e+01 1.8589245028019883e+00 0 0 0
184 1 1.8216857135828974e+01 2.0072873408129503e+01 1.8635876176517130e+00 0 0 0
437 1 1.8088537676347038e+01 1.8361796498214744e+01 3.5596756135186509e+00 0 0 0
438 1 1.9962315790533630e+01 2.0020845277898268e+01 3.6715638991809731e+00 0 0 0
181 1 1.8294261795593776e+01 1.8243064208828983e+01 -4.4197993870857474e-03 0 0 0
182 1 1.9962117932870882e+01 2.0079574547311275e+01 1.5682221089949747e-01 0 0 0
187 1 2.3681465300295947e+01 1.8321368537362254e+01 1.9085497241245548e+00 0 0 0
188 1 2.1811273359588775e+01 1.9994701225483091e+01 1.8308319957624144e+00 0 0 0
441 1 2.1814717863381325e+01 1.8225761567183284e+01 3.5901075782776171e+00 0 0 0
442 1 2.3695331934619652e+01 2.0061225275692948e+01 3.6456803006245520e+00 0 0 0
185 1 2.1875918395469974e+01 1.8177663937740391e+01 1.9359794739857117e-01 0 0 0
186 1 2.3744239526896294e+01 2.0083903468557921e+01 3.7215746184564802e-02 0 0 0
417 1 2.9151827455652583e+01 1.8403324723236665e+01 3.5983831579642720e+00 -1 0 0
191 1 2.7328015086108415e+01 1.8231774347711877e+01 1.8661404671945712e+00 0 0 0
192 1 2.5585694560874842e+01 2.0125417353610850e+01 1.8099390377488103e+00 0 0 0
445 1 2.5533532100021283e+01 1.8255791918816300e+01 3.7047787913722363e+00 0 0 0
446 1 2.7322952356187230e+01 2.0133433614394498e+01 3.5363503058613261e+00 0 0 0
190 1 2.7373115272489287e+01 2.0059714332367513e+01 -6.7811874305562583e-03 0 0 0
195 1 1.8918791168999312e+00 2.1912970771795344e+01 1.7701211567431721e+00 0 0 0
200 1 3.4997089999449074e+00 2.3761845652588761e+01 1.7746145520149010e+00 0 0 0
450 1 1.6828185095629145e+00 2.3856362431547630e+01 3.6409888702578956e+00 0 0 0
453 1 3.7618942701646492e+00 2.2026415632960543e+01 3.6523176432737299e+00 0 0 0
449 1 5.8225173573791283e-02 2.2029140727531022e+01 3.5489554630626676e+00 0 0 0
196 1 1.7845932830584263e-02 2.3910484910015491e+01 1.6847807987745602e+00 0 0 0
193 1 6.3514511352352837e-02 2.1859845387601361e+01 -1.4066895161398738e-02 0 0 0
199 1 5.4058143021166583e+00 2.1934607242496924e+01 1.7281709084423755e+00 0 0 0
204 1 7.4381257122342532e+00 2.3692449128728171e+01 1.7453242242162297e+00 0 0 0
454 1 5.4287624737524984e+00 2.3873579282564329e+01 3.5503212586180646e+00 0 0 0
457 1 7.3859897791472759e+00 2.1876637073197607e+01 3.5591312141121692e+00 0 0 0
201 1 7.3815702250051984e+00 2.1969390589207400e+01 6.7914865375661090e-02 0 0 0
198 1 5.4476100140427519e+00 2.3775008705915937e+01 -1.0504651693175049e-02 0 0 0
203 1 9.1549728583422532e+00 2.1776428423420562e+01 1.7185114845533325e+00 0 0 0
208 1 1.0868286301503433e+01 2.3706566727531758e+01 1.6756072048541102e+00 0 0 0
458 1 9.1994138610601155e+00 2.3741545888489462e+01 3.6096598539442257e+00 0 0 0
461 1 1.0853928516546985e+01 2.1906125656919471e+01 3.5965107314824816e+00 0 0 0
207 1 1.2718705890827922e+01 2.1952974614461958e+01 1.7364769892257712e+00 0 0 0
211 1 1.6265477428514181e+01 2.1875822462304669e+01 1.8138528403791754e+00 0 0 0
212 1 1.4458357777500904e+01 2.3757317594482885e+01 1.7119710041666270e+00 0 0 0
462 1 1.2666302080672439e+01 2.3763852744177470e+01 3.6803652082842562e+00 0 0 0
465 1 1.4489845562433123e+01 2.1866336998775587e+01 3.5423804855113388e+00 0 0 0
466 1 1.6284678103167948e+01 2.3742717775656160e+01 3.6723189925983921e+00 0 0 0
215 1 2.0144429465667741e+01 2.1901941089535207e+01 1.8327889555895160e+00 0 0 0
216 1 1.8067193076302260e+01 2.3632943205204413e+01 1.7530827082947078e+00 0 0 0
469 1 1.8241159744943495e+01 2.1842366080767725e+01 3.5776834658524148e+00 0 0 0
470 1 2.0054223591161929e+01 2.3733514265724345e+01 3.5955830538247948e+00 0 0 0
214 1 2.0038042423363777e+01 2.3726031998597449e+01 3.5924837965815248e-02 0 0 0
213 1 1.8198867339039431e+01 2.2014488574242861e+01 4.8205307200390735e-03 0 0 0
219 1 2.3588438718615251e+01 2.1843413900397373e+01 1.8802024741209271e+00 0 0 0
220 1 2.1861533471070238e+01 2.3675071750758462e+01 1.8286792686289466e+00 0 0 0
473 1 2.1794513852133981e+01 2.1940757472902988e+01 3.7193294101194354e+00 0 0 0
474 1 2.3757062405943749e+01 2.3675949905886171e+01 3.5930740729173163e+00 0 0 0
223 1 2.7313392123961336e+01 2.2043841920616771e+01 1.8467871744706341e+00 0 0 0
224 1 2.5498021409273598e+01 2.3710580059765554e+01 1.7011068434915628e+00 0 0 0
477 1 2.5455028844789915e+01 2.1887865703393423e+01 3.6909706272073031e+00 0 0 0
478 1 2.7359235232553964e+01 2.3842743228347189e+01 3.6557042670163824e+00 0 0 0
261 1 3.5864462146862972e+00 2.8945899894384183e+01 3.6441543117485580e+00 0 -1 0
257 1 4.1496650371050242e-03 2.9113210117798758e+01 3.6678180416662212e+00 0 -1 0
3 1 1.8709056916763227e+00 2.9125299805484538e+01 1.8267762159764502e+00 0 -1 0
227 1 1.6646987631337240e+00 2.5580989005332754e+01 1.6841443964902925e+00 0 0 0
232 1 3.4454769718229676e+00 2.7337634348048617e+01 1.7094448813404297e+00 0 0 0
482 1 1.7867900556978424e+00 2.7337395833133257e+01 3.5700428675011717e+00 0 0 0
485 1 3.5471635103636885e+00 2.5522152585990604e+01 3.5168559801345585e+00 0 0 0
481 1 -4.2059685611080047e-03 2.5596903091529768e+01 3.6152120775646752e+00 0 0 0
265 1 7.3254795437044740e+00 2.9047586537397315e+01 3.7183724696069369e+00 0 -1 0
231 1 5.3162532936876161e+00 2.5528893980973734e+01 1.8472556644450844e+00 0 0 0
236 1 7.2976655844439273e+00 2.7359253134968277e+01 1.6595993249635181e+00 0 0 0
486 1 5.5065695997147213e+00 2.7364048277372220e+01 3.5496871678927646e+00 0 0 0
489 1 7.3036809200899793e+00 2.5472609288800321e+01 3.6458129523633827e+00 0 0 0
230 1 5.3649521610586097e+00 2.7362082336158281e+01 -9.9832719571892881e-03 0 0 0
269 1 1.0861696161616422e+01 2.9078005698322457e+01 3.6175968082249019e+00 0 -1 0
235 1 9.1477686049865188e+00 2.5390652424145607e+01 1.7649369958230672e+00 0 0 0
240 1 1.0744570857054134e+01 2.7353883889659429e+01 1.6894128908759667e+00 0 0 0
490 1 9.0156045346680678e+00 2.7386844815269718e+01 3.5974846507432772e+00 0 0 0
493 1 1.0908145428753990e+01 2.5543974018863466e+01 3.6802231365747202e+00 0 0 0
273 1 1.4662514247696173e+01 2.9100270989359068e+01 3.6244021543493496e+00 0 -1 0
19 1 1.6531047294972900e+01 2.9128601981227710e+01 1.7351620305687212e+00 0 -1 0
239 1 1.2651193429832862e+01 2.5625432169809670e+01 1.8112498803983972e+00 0 0 0
243 1 1.6317976727581488e+01 2.5394008590647985e+01 1.8326729647143662e+00 0 0 0
244 1 1.4574539169458108e+01 2.7417816513152339e+01 1.8635417590076220e+00 0 0 0
494 1 1.2764891559353851e+01 2.7390554056373816e+01 3.6306652434046986e+00 0 0 0
497 1 1.4577746368828016e+01 2.5580417586517370e+01 3.7360501338013554e+00 0 0 0
498 1 1.6349779219863827e+01 2.7296742741624882e+01 3.5743831575246987e+00 0 0 0
238 1 1.2718920693061765e+01 2.7407956483831555e+01 -2.5835598129707229e-02 0 0 0
23 1 2.0064276026660075e+01 2.9128846883347926e+01 1.6545251345280225e+00 0 -1 0
277 1 1.8383092927349040e+01 2.9028145245593073e+01 3.6475796846186190e+00 0 -1 0
247 1 2.0027863306765028e+01 2.5564696819054468e+01 1.6406295085253562e+00 0 0 0
248 1 1.8281006230003541e+01 2.7379067892650276e+01 1.7206861023800133e+00 0 0 0
501 1 1.8158869170124952e+01 2.5513619299297510e+01 3.4913247295685568e+00 0 0 0
502 1 2.0072579752857379e+01 2.7208073360333010e+01 3.6847723793423524e+00 0 0 0
281 1 2.1805189980680183e+01 2.9094793153146867e+01 3.5419591127322567e+00 0 -1 0
27 1 2.3613811868475551e+01 2.9062415745599580e+01 1.7768875269997615e+00 0 -1 0
251 1 2.3612006720876600e+01 2.5492093674044547e+01 1.7524195482299849e+00 0 0 0
252 1 2.1825483723483067e+01 2.7175764375460780e+01 1.6163457577898805e+00 0 0 0
505 1 2.1915179697474748e+01 2.5444435936560005e+01 3.4992226455696658e+00 0 0 0
506 1 2.3665681109364741e+01 2.7375204273138266e+01 3.6425450229578957e+00 0 0 0
31 1 2.7264025456406763e+01 2.9063527645396206e+01 1.8510311521725831e+00 0 -1 0
228 1 2.9113953641019293e+01 2.7324762995034156e+01 1.8061801284630055e+00 -1 0 0
255 1 2.7334094014741247e+01 2.5391342473502711e+01 1.7456256640308607e+00 0 0 0
256 1 2.5491946614351178e+01 2.7304816107491000e+01 1.6572037972288174e+00 0 0 0
509 1 2.5454512759763972e+01 2.5595752403526475e+01 3.6206671010690248e+00 0 0 0
510 1 2.7250847859808935e+01 2.7284363601973709e+01 3.6564404451531112e+00 0 0 0
264 1 3.7734824262272113e+00 1.7151137676178592e+00 5.3994394673121606e+00 0 0 0
291 1 1.8358480519984186e+00 3.5811226467110946e+00 5.4172739369847243e+00 0 0 0
514 1 1.7912052035257036e+00 1.6807635920114401e+00 7.2628365346048422e+00 0 0 0
549 1 3.5794376954295704e+00 3.4943983758901807e+00 7.3247628350846297e+00 0 0 0
260 1 -3.9582603135174747e-02 1.8361127719137662e+00 5.3886924005035715e+00 0 0 0
268 1 7.2563041268387281e+00 1.7675584869690388e+00 5.4536975784300727e+00 0 0 0
295 1 5.4580398030978685e+00 3.4716057933304572e+00 5.4630577374321225e+00 0 0 0
518 1 5.3850271626524941e+00 1.7477029674925961e+00 7.3596288097134392e+00 0 0 0
553 1 7.3171359151252409e+00 3.7516608122074793e+00 7.2139692755419862e+00 0 0 0
521 1 7.3617429994966876e+00 -4.0370099593609154e-02 7.3910605581970197e+00 0 0 0
263 1 5.4826808204337123e+00 8.5198907962673043e-03 5.5769327850478945e+00 0 0 0
272 1 1.0851800471950870e+01 1.6393932338419208e+00 5.5346092570275562e+00 0 0 0
299 1 9.1418483692394208e+00 3.5391836153022993e+00 5.5310518371243695e+00 0 0 0
522 1 9.1271889584574470e+00 1.8400697773493757e+00 7.3728634975993517e+00 0 0 0
557 1 1.0991024826611786e+01 3.5225896359030298e+00 7.2248806335635791e+00 0 0 0
525 1 1.1006825141901137e+01 -1.2255669559422699e-02 7.2450825734470401e+00 0 0 0
276 1 1.4546506706706948e+01 1.7209838905069472e+00 5.3876287710678623e+00 0 0 0
303 1 1.2697399954886301e+01 3.4987905091441962e+00 5.3249006850601424e+00 0 0 0
307 1 1.6430581005094254e+01 3.5747480937050313e+00 5.4017803650514313e+00 0 0 0
526 1 1.2858746330920063e+01 1.6464959534691501e+00 7.1341690566071954e+00 0 0 0
530 1 1.6417119932823326e+01 1.6188187867878876e+00 7.3092579865692420e+00 0 0 0
561 1 1.4552972930719683e+01 3.6041308875317934e+00 7.2024402446187370e+00 0 0 0
280 1 1.8128147301335694e+01 1.7559773295680594e+00 5.4001571629894372e+00 0 0 0
311 1 2.0089012985436185e+01 3.5310007749079548e+00 5.4354785419305927e+00 0 0 0
534 1 1.9945379123547902e+01 1.7111486281539379e+00 7.2627583866725614e+00 0 0 0
565 1 1.8232803226026213e+01 3.7272809690055233e+00 7.1372271944778873e+00 0 0 0
284 1 2.1885050140333490e+01 1.6304756893200152e+00 5.5691309600556593e+00 0 0 0
315 1 2.3713241476722700e+01 3.4261002959177316e+00 5.3535267740997767e+00 0 0 0
538 1 2.3619963062950042e+01 1.7796364050367970e+00 7.3635548114870168e+00 0 0 0
569 1 2.1793739332394750e+01 3.5327292219233430e+00 7.2231554804425535e+00 0 0 0
283 1 2.3649947277724017e+01 -4.0229820989174048e-02 5.5200027425098259e+00 0 0 0
545 1 2.9110924756966071e+01 3.5327656087467298e+00 7.1876075394394379e+00 -1 0 0
513 1 2.9151496296125394e+01 1.1844827919510392e-01 7.0643534396979204e+00 -1 0 0
288 1 2.5415151683368748e+01 1.6993872578723197e+00 5.3900968752929135e+00 0 0 0
319 1 2.7301389247333930e+01 3.5039951551623258e+00 5.3293373291544510e+00 0 0 0
542 1 2.7293491116776757e+01 1.8082104082427923e+00 7.2338489060171902e+00 0 0 0
573 1 2.5456127105813053e+01 3.6251273788151583e+00 7.2272506918826229e+00 0 0 0
296 1 3.6919401557017069e+00 5.3928689024783312e+00 5.4127008987766461e+00 0 0 0
323 1 1.7701906960695546e+00 7.1393516625297773e+00 5.5258918540367787e+00 0 0 0
546 1 1.6839685217381974e+00 5.2508652357320731e+00 7.3370575425444304e+00 0 0 0
581 1 3.5347439905264402e+00 7.0455121031128138e+00 7.4118496463026320e+00 0 0 0
292 1 7.5521878598666228e-02 5.3205633871656106e+00 5.4190681054900178e+00 0 0 0
300 1 7.2689829093088552e+00 5.4080752931398468e+00 5.4534729622971234e+00 0 0 0
327 1 5.3403924833800671e+00 7.3710289477166215e+00 5.4911644006180564e+00 0 0 0
550 1 5.4404361638521062e+00 5.4158222040537209e+00 7.4666865449433688e+00 0 0 0
585 1 7.2579925732347483e+00 7.1112471537747339e+00 7.2643078270281585e+00 0 0 0
304 1 1.0918976700217303e+01 5.4125095877939788e+00 5.4114206361882324e+00 0 0 0
331 1 9.1871483026268699e+00 7.2523989029894631e+00 5.3706526948809383e+00 0 0 0
554 1 9.1196657547164772e+00 5.4896014888402238e+00 7.2742726706418521e+00 0 0 0
589 1 1.1007924165699729e+01 7.0644451062301101e+00 7.2126492566525542e+00 0 0 0
308 1 1.4563922528880243e+01 5.4721613366727979e+00 5.4074679076419958e+00 0 0 0