ITEM: TIMESTEP
0
ITEM: NUMBER OF ATOMS
2048
ITEM: BOX BOUNDS pp pp pp
-0.0410052 29.153
-0.0410052 29.153
-0.0410052 29.153
ITEM: ATOMS id type x y z 
8 1 3.55068 1.72131 1.83732 
35 1 1.7895 3.67764 1.75398 
258 1 1.88811 1.71745 3.60568 
293 1 3.57699 3.65203 3.66982 
289 1 -0.0285954 3.62619 3.55493 
37 1 3.56889 3.58761 0.00326187 
5 1 3.73724 -0.0190682 0.0132492 
12 1 7.31454 1.75635 1.91169 
39 1 5.31852 3.57507 1.80172 
262 1 5.28625 1.6629 3.46405 
297 1 7.22597 3.66461 3.63402 
7 1 5.46872 0.0291755 1.73897 
41 1 7.19234 3.5509 -0.0276878 
6 1 5.46656 1.8403 0.0171996 
16 1 10.8174 1.75297 1.79076 
43 1 9.08013 3.68273 1.83779 
266 1 9.05038 1.70387 3.657 
301 1 10.9255 3.39294 3.74155 
10 1 9.04002 1.85157 -0.0361542 
11 1 9.01763 -0.00553426 1.75073 
20 1 14.6198 1.60629 1.88991 
47 1 12.6627 3.56557 1.73525 
51 1 16.4051 3.62987 1.76683 
270 1 12.6783 1.74627 3.52685 
274 1 16.4392 1.74092 3.62247 
305 1 14.4714 3.60773 3.55557 
49 1 14.6059 3.6578 0.159416 
15 1 12.6519 0.00928521 1.70785 
24 1 18.3619 1.84715 1.70259 
55 1 20.1789 3.62732 1.81582 
278 1 20.1255 1.60004 3.69677 
309 1 18.2464 3.50361 3.50531 
28 1 21.8001 1.67801 1.80309 
59 1 23.5459 3.67089 1.84906 
282 1 23.5958 1.5903 3.56862 
313 1 21.7374 3.4859 3.71419 
26 1 23.7152 1.81729 0.00474339 
4 1 29.0936 1.70488 1.81828 
32 1 25.414 1.78079 1.78144 
63 1 27.3341 3.61088 1.83087 
286 1 27.3302 1.71376 3.49782 
317 1 25.3993 3.60776 3.53281 
285 1 25.4851 -0.0190543 3.65182 
61 1 25.3875 3.68248 0.0472513 
30 1 27.1683 1.70495 0.0545999 
40 1 3.52827 5.44728 1.90483 
67 1 1.86318 7.36714 1.85156 
290 1 1.69604 5.43261 3.59609 
325 1 3.5616 7.16388 3.63793 
36 1 0.0543258 5.49303 1.711 
69 1 3.65231 7.10353 0.0697944 
34 1 1.61968 5.546 -0.0200493 
44 1 7.39713 5.28831 1.87155 
71 1 5.45673 7.11697 1.80635 
294 1 5.52131 5.31386 3.61901 
329 1 7.17891 7.27141 3.55927 
38 1 5.42067 5.45247 0.0321323 
48 1 10.8752 5.31631 1.74821 
75 1 9.12405 7.3254 1.73485 
298 1 9.20188 5.3749 3.59554 
333 1 11.0049 7.18452 3.54776 
52 1 14.576 5.48099 1.81367 
79 1 12.7176 7.27675 1.6549 
83 1 16.3047 7.3488 1.83701 
302 1 12.645 5.39609 3.52095 
306 1 16.359 5.46188 3.69821 
337 1 14.3921 7.26179 3.57914 
46 1 12.6663 5.42232 0.00459823 
81 1 14.4148 7.38964 -0.0302115 
50 1 16.3701 5.37439 -0.00809457 
56 1 18.0914 5.60474 1.81945 
87 1 20.0226 7.20732 1.887 
310 1 20.0652 5.42395 3.61775 
341 1 18.2452 7.28634 3.6842 
54 1 19.9298 5.33413 -0.0118003 
60 1 21.82 5.48396 1.85237 
91 1 23.67 7.26372 1.81221 
314 1 23.6269 5.3603 3.63319 
345 1 21.8825 7.21664 3.78694 
58 1 23.6463 5.48976 -0.0367416 
89 1 21.7375 7.14947 0.0597279 
321 1 28.9725 7.30444 3.68711 
65 1 29.0964 7.32148 0.0382101 
64 1 25.4227 5.49701 1.93323 
95 1 27.3256 7.29851 1.65267 
318 1 27.3556 5.43599 3.65279 
349 1 25.5119 7.3562 3.49595 
62 1 27.3159 5.3384 0.0441244 
72 1 3.65706 9.05929 1.75938 
99 1 1.86343 10.7902 1.96043 
322 1 1.68548 9.05559 3.66109 
357 1 3.67187 10.9702 3.54231 
66 1 1.68772 9.09955 0.0248487 
68 1 -0.0370127 9.09495 1.88673 
101 1 3.71034 10.7606 0.0862611 
76 1 7.22284 9.06132 1.82843 
103 1 5.53336 10.8756 1.81503 
326 1 5.50782 9.01721 3.6835 
361 1 7.35232 10.9727 3.55368 
80 1 10.9231 9.25836 1.76735 
107 1 9.02551 10.8906 1.91978 
330 1 9.21286 9.0215 3.52444 
365 1 10.9783 11.0242 3.64369 
109 1 10.8991 10.9422 -0.00925826 
84 1 14.5298 9.18089 1.76957 
111 1 12.7022 11.1049 1.8557 
115 1 16.388 10.793 1.75879 
334 1 12.6186 9.06005 3.48653 
338 1 16.343 9.13525 3.72289 
369 1 14.4909 10.8995 3.64449 
82 1 16.4308 8.98958 -0.04033 
78 1 12.7057 9.12021 -0.00442127 
88 1 18.1975 8.9772 1.81913 
119 1 19.9944 10.8092 1.69512 
342 1 19.9756 9.08804 3.61368 
373 1 18.3639 10.8542 3.62784 
117 1 18.1398 10.8738 -0.0179991 
92 1 21.6992 8.97878 1.85457 
123 1 23.5334 10.9256 1.69204 
346 1 23.5983 9.1645 3.68606 
377 1 21.8135 10.9987 3.49014 
90 1 23.6138 9.04314 0.0458974 
353 1 29.0772 11.0537 3.45234 
96 1 25.4814 9.08163 1.76583 
127 1 27.2503 10.8345 1.77835 
350 1 27.1112 9.14432 3.60712 
381 1 25.3172 10.9355 3.4253 
97 1 29.0338 10.9173 0.0227413 
125 1 25.5879 10.9779 0.0177416 
104 1 3.58348 12.6354 1.66477 
131 1 1.92926 14.6917 1.93514 
136 1 3.69715 16.4844 1.7498 
354 1 1.88302 12.8551 3.61626 
386 1 1.83021 16.4793 3.45136 
389 1 3.62715 14.5103 3.73849 
130 1 1.74967 16.4487 0.0593385 
132 1 0.112729 16.573 1.83885 
100 1 0.0358198 12.748 1.84145 
98 1 1.64594 12.7108 -0.0060019 
108 1 7.19121 12.6577 1.77705 
135 1 5.39072 14.5276 1.74343 
140 1 7.14237 16.4528 1.98131 
358 1 5.42251 12.8102 3.49187 
390 1 5.40667 16.4222 3.53647 
393 1 7.26045 14.4331 3.48678 
134 1 5.41559 16.4173 0.0861402 
112 1 10.9085 12.8796 1.74366 
139 1 9.00458 14.5284 1.85105 
144 1 11.0337 16.4434 1.66318 
362 1 9.25743 12.8056 3.6137 
394 1 9.1405 16.4757 3.42997 
397 1 10.9825 14.6101 3.51502 
138 1 8.8912 16.4198 0.173203 
106 1 9.09596 12.7181 -0.00109277 
116 1 14.5705 12.6343 1.73826 
143 1 12.8746 14.5057 1.64095 
147 1 16.3885 14.5538 1.88061 
148 1 14.7189 16.2918 1.83804 
366 1 12.8956 12.7026 3.53611 
370 1 16.2291 12.5416 3.63054 
398 1 12.8449 16.3921 3.65902 
401 1 14.4914 14.5946 3.60367 
402 1 16.442 16.4278 3.64572 
146 1 16.5169 16.4239 -0.0266225 
114 1 16.3494 12.7525 -0.00742919 
120 1 18.2355 12.7491 1.71684 
151 1 20.0854 14.5008 1.80365 
152 1 18.1775 16.2978 1.83858 
374 1 19.98 12.6628 3.60625 
405 1 18.3546 14.4869 3.71202 
406 1 20.004 16.3901 3.66114 
150 1 19.9884 16.4186 0.100442 
118 1 20.0056 12.7301 0.0292816 
124 1 21.8705 12.763 1.65349 
155 1 23.8475 14.604 1.79989 
156 1 21.8428 16.3182 1.77583 
378 1 23.6901 12.6326 3.60467 
409 1 21.8279 14.5861 3.66568 
410 1 23.7339 16.4498 3.61223 
154 1 23.6871 16.4241 0.0354639 
385 1 29.1426 14.5761 3.66908 
128 1 25.4376 12.8083 1.75551 
159 1 27.3947 14.6848 1.85883 
160 1 25.4498 16.5107 1.81676 
382 1 27.2616 12.7785 3.66033 
413 1 25.6361 14.6233 3.51885 
414 1 27.3564 16.463 3.65666 
129 1 29.0506 14.6488 -0.0180505 
157 1 25.5522 14.6517 0.00830346 
126 1 27.2588 12.819 0.0849617 
158 1 27.4335 16.3904 -0.000589929 
163 1 1.81685 18.3703 1.73821 
168 1 3.67119 20.1683 1.85953 
418 1 1.72658 20.1319 3.61352 
421 1 3.59957 18.2897 3.63683 
164 1 -0.00718804 20.1276 1.87884 
161 1 -0.0136608 18.289 -0.00957428 
167 1 5.32385 18.4208 1.78642 
172 1 7.15405 20.0269 1.67924 
422 1 5.48542 20.1011 3.65169 
425 1 7.21958 18.3319 3.59584 
169 1 7.16746 18.1848 0.106313 
171 1 9.10511 18.2671 1.91168 
176 1 11.067 20.1221 1.92737 
426 1 9.18704 20.0949 3.78203 
429 1 11.0682 18.2676 3.52849 
170 1 9.08447 19.9612 0.0697468 
173 1 10.8817 18.26 0.0695093 
175 1 12.8508 18.215 1.57401 
179 1 16.3954 18.3447 1.70781 
180 1 14.4856 19.976 1.75302 
430 1 12.7443 20.0906 3.63442 
433 1 14.509 18.2696 3.71618 
434 1 16.2982 20.1219 3.64071 
183 1 19.9786 18.1294 1.85892 
184 1 18.2169 20.0729 1.86359 
437 1 18.0885 18.3618 3.55968 
438 1 19.9623 20.0208 3.67156 
181 1 18.2943 18.2431 -0.0044198 
182 1 19.9621 20.0796 0.156822 
187 1 23.6815 18.3214 1.90855 
188 1 21.8113 19.9947 1.83083 
441 1 21.8147 18.2258 3.59011 
442 1 23.6953 20.0612 3.64568 
185 1 21.8759 18.1777 0.193598 
186 1 23.7442 20.0839 0.0372157 
417 1 29.1518 18.4033 3.59838 
191 1 27.328 18.2318 1.86614 
192 1 25.5857 20.1254 1.80994 
445 1 25.5335 18.2558 3.70478 
446 1 27.323 20.1334 3.53635 
190 1 27.3731 20.0597 -0.00678119 
195 1 1.89188 21.913 1.77012 
200 1 3.49971 23.7618 1.77461 
450 1 1.68282 23.8564 3.64099 
453 1 3.76189 22.0264 3.65232 
449 1 0.0582252 22.0291 3.54896 
196 1 0.0178459 23.9105 1.68478 
193 1 0.0635145 21.8598 -0.0140669 
199 1 5.40581 21.9346 1.72817 
204 1 7.43813 23.6924 1.74532 
454 1 5.42876 23.8736 3.55032 
457 1 7.38599 21.8766 3.55913 
201 1 7.38157 21.9694 0.0679149 
198 1 5.44761 23.775 -0.0105047 
203 1 9.15497 21.7764 1.71851 
208 1 10.8683 23.7066 1.67561 
458 1 9.19941 23.7415 3.60966 
461 1 10.8539 21.9061 3.59651 
207 1 12.7187 21.953 1.73648 
211 1 16.2655 21.8758 1.81385 
212 1 14.4584 23.7573 1.71197 
462 1 12.6663 23.7639 3.68037 
465 1 14.4898 21.8663 3.54238 
466 1 16.2847 23.7427 3.67232 
215 1 20.1444 21.9019 1.83279 
216 1 18.0672 23.6329 1.75308 
469 1 18.2412 21.8424 3.57768 
470 1 20.0542 23.7335 3.59558 
214 1 20.038 23.726 0.0359248 
213 1 18.1989 22.0145 0.00482053 
219 1 23.5884 21.8434 1.8802 
220 1 21.8615 23.6751 1.82868 
473 1 21.7945 21.9408 3.71933 
474 1 23.7571 23.6759 3.59307 
223 1 27.3134 22.0438 1.84679 
224 1 25.498 23.7106 1.70111 
477 1 25.455 21.8879 3.69097 
478 1 27.3592 23.8427 3.6557 
261 1 3.58645 28.9459 3.64415 
257 1 0.00414967 29.1132 3.66782 
3 1 1.87091 29.1253 1.82678 
227 1 1.6647 25.581 1.68414 
232 1 3.44548 27.3376 1.70944 
482 1 1.78679 27.3374 3.57004 
485 1 3.54716 25.5222 3.51686 
481 1 -0.00420597 25.5969 3.61521 
265 1 7.32548 29.0476 3.71837 
231 1 5.31625 25.5289 1.84726 
236 1 7.29767 27.3593 1.6596 
486 1 5.50657 27.364 3.54969 
489 1 7.30368 25.4726 3.64581 
230 1 5.36495 27.3621 -0.00998327 
269 1 10.8617 29.078 3.6176 
235 1 9.14777 25.3907 1.76494 
240 1 10.7446 27.3539 1.68941 
490 1 9.0156 27.3868 3.59748 
493 1 10.9081 25.544 3.68022 
273 1 14.6625 29.1003 3.6244 
19 1 16.531 29.1286 1.73516 
239 1 12.6512 25.6254 1.81125 
243 1 16.318 25.394 1.83267 
244 1 14.5745 27.4178 1.86354 
494 1 12.7649 27.3906 3.63067 
497 1 14.5777 25.5804 3.73605 
498 1 16.3498 27.2967 3.57438 
238 1 12.7189 27.408 -0.0258356 
23 1 20.0643 29.1288 1.65453 
277 1 18.3831 29.0281 3.64758 
247 1 20.0279 25.5647 1.64063 
248 1 18.281 27.3791 1.72069 
501 1 18.1589 25.5136 3.49132 
502 1 20.0726 27.2081 3.68477 
281 1 21.8052 29.0948 3.54196 
27 1 23.6138 29.0624 1.77689 
251 1 23.612 25.4921 1.75242 
252 1 21.8255 27.1758 1.61635 
505 1 21.9152 25.4444 3.49922 
506 1 23.6657 27.3752 3.64255 
31 1 27.264 29.0635 1.85103 
228 1 29.114 27.3248 1.80618 
255 1 27.3341 25.3913 1.74563 
256 1 25.4919 27.3048 1.6572 
509 1 25.4545 25.5958 3.62067 
510 1 27.2508 27.2844 3.65644 
264 1 3.77348 1.71511 5.39944 
291 1 1.83585 3.58112 5.41727 
514 1 1.79121 1.68076 7.26284 
549 1 3.57944 3.4944 7.32476 
260 1 -0.0395826 1.83611 5.38869 
268 1 7.2563 1.76756 5.4537 
295 1 5.45804 3.47161 5.46306 
518 1 5.38503 1.7477 7.35963 
553 1 7.31714 3.75166 7.21397 
521 1 7.36174 -0.0403701 7.39106 
263 1 5.48268 0.00851989 5.57693 
272 1 10.8518 1.63939 5.53461 
299 1 9.14185 3.53918 5.53105 
522 1 9.12719 1.84007 7.37286 
557 1 10.991 3.52259 7.22488 
525 1 11.0068 -0.0122557 7.24508 
276 1 14.5465 1.72098 5.38763 
303 1 12.6974 3.49879 5.3249 
307 1 16.4306 3.57475 5.40178 
526 1 12.8587 1.6465 7.13417 
530 1 16.4171 1.61882 7.30926 
561 1 14.553 3.60413 7.20244 
280 1 18.1281 1.75598 5.40016 
311 1 20.089 3.531 5.43548 
534 1 19.9454 1.71115 7.26276 
565 1 18.2328 3.72728 7.13723 
284 1 21.8851 1.63048 5.56913 
315 1 23.7132 3.4261 5.35353 
538 1 23.62 1.77964 7.36355 
569 1 21.7937 3.53273 7.22316 
283 1 23.6499 -0.0402298 5.52 
545 1 29.1109 3.53277 7.18761 
513 1 29.1515 0.118448 7.06435 
288 1 25.4152 1.69939 5.3901 
319 1 27.3014 3.504 5.32934 
542 1 27.2935 1.80821 7.23385 
573 1 25.4561 3.62513 7.22725 
296 1 3.69194 5.39287 5.4127 
323 1 1.77019 7.13935 5.52589 
546 1 1.68397 5.25087 7.33706 
581 1 3.53474 7.04551 7.41185 
292 1 0.0755219 5.32056 5.41907 
300 1 7.26898 5.40808 5.45347 
327 1 5.34039 7.37103 5.49116 
550 1 5.44044 5.41582 7.46669 
585 1 7.25799 7.11125 7.26431 
304 1 10.919 5.41251 5.41142 
331 1 9.18715 7.2524 5.37065 
554 1 9.11967 5.4896 7.27427 
589 1 11.0079 7.06445 7.21265 
308 1 14.5639 5.47216 5.40747 
335 1 12.8139 7.24254 5.45533 
339 1 16.3014 7.35402 5.52716 
558 1 12.7198 5.3467 7.13418 
562 1 16.4784 5.40332 7.1878 
593 1 14.5922 7.04811 7.46853 
312 1 18.3074 5.50068 5.31237 
343 1 20.141 7.35287 5.61173 
566 1 20.0909 5.47246 7.30034 
597 1 18.2201 7.28546 7.2514 
316 1 21.81 5.4001 5.51684 
347 1 23.6924 7.25929 5.49697 
570 1 23.5427 5.37822 7.1392 
601 1 21.952 7.2683 7.2755 
577 1 29.0405 7.17423 7.19934 
320 1 25.4888 5.38557 5.40216 
351 1 27.345 7.20216 5.46324 
574 1 27.3665 5.24192 7.13403 
605 1 25.5422 7.12633 7.24791 
328 1 3.55519 8.95284 5.32921 
355 1 1.78524 10.927 5.35607 
578 1 1.78576 9.129 7.19481 
613 1 3.55987 10.7916 7.21116 
609 1 0.0600639 10.8399 7.23391 
332 1 7.3998 9.0227 5.48357 
359 1 5.44009 10.8221 5.28046 
582 1 5.59806 9.18663 7.15646 
617 1 7.40101 10.8656 7.26304 
614 1 5.4937 12.4618 7.33149 
336 1 10.8638 9.14914 5.34125 
363 1 9.09676 11.0183 5.31056 
586 1 9.1877 8.97469 7.03171 
621 1 10.9627 11.0003 7.06535 
340 1 14.4896 9.01743 5.52364 
367 1 12.7135 10.8728 5.43445 
371 1 16.39 10.862 5.44304 
590 1 12.6419 8.90599 7.26086 
594 1 16.4606 9.01418 7.31494 
625 1 14.588 10.8316 7.31611 
344 1 18.3955 9.16093 5.45801 
375 1 20.192 10.9472 5.44929 
598 1 20.0211 9.10497 7.31245 
629 1 18.246 10.9847 7.20749 
348 1 22.0383 9.20091 5.47759 
379 1 23.7282 11.0911 5.41687 
602 1 23.6952 9.12392 7.30195 
633 1 21.9516 10.8879 7.35952 
324 1 29.0891 9.02987 5.44524 
352 1 25.3641 9.07939 5.45406 
383 1 27.2739 10.8193 5.36336 
606 1 27.3207 9.06781 7.22614 
637 1 25.5467 10.878 7.24645 
360 1 3.68345 12.6407 5.51821 
387 1 1.78986 14.5448 5.45812 
392 1 3.6474 16.3822 5.56338 
610 1 1.78433 12.7959 7.27411 
642 1 1.72668 16.3533 7.20609 
645 1 3.67381 14.565 7.24585 
356 1 -0.0348708 12.6923 5.45171 
364 1 7.22343 12.6829 5.43361 
391 1 5.50436 14.5316 5.39491 
396 1 7.29227 16.4241 5.25468 
646 1 5.43263 16.3418 7.32767 
649 1 7.25075 14.3647 7.28159 
368 1 10.9416 12.7652 5.29508 
395 1 8.96464 14.4479 5.33574 
400 1 10.8254 16.4007 5.40061 
618 1 9.24347 12.755 7.10713 
650 1 8.81249 16.3119 7.23118 
653 1 10.913 14.7173 7.24886 
372 1 14.5329 12.7869 5.37145 
399 1 12.7663 14.626 5.39878 
403 1 16.1954 14.5391 5.33436 
404 1 14.6905 16.4562 5.56689 
622 1 12.7647 12.8381 7.23502 
626 1 16.3524 12.5696 7.15934 
654 1 12.736 16.2724 7.37744 
657 1 14.6966 14.4971 7.27515 
658 1 16.3552 16.335 7.22111 
376 1 18.2413 12.6447 5.3813 
407 1 20.0448 14.4651 5.3415 
408 1 18.0983 16.4477 5.49813 
630 1 20.1433 12.8372 7.27073 
661 1 18.1397 14.4159 7.11178 
662 1 19.9047 16.3175 7.10103 
380 1 21.937 12.7195 5.37523 
411 1 23.6932 14.5526 5.44223 
412 1 21.9611 16.3199 5.38999 
634 1 23.6636 12.8243 7.20012 
665 1 21.9143 14.5604 7.37817 
666 1 23.7534 16.3869 7.42485 
641 1 29.1219 14.5548 7.07119 
388 1 29.0791 16.4348 5.4777 
384 1 25.4467 12.779 5.4007 
415 1 27.3143 14.5458 5.41915 
416 1 25.5183 16.4395 5.32078 
638 1 27.3821 12.6937 7.07336 
669 1 25.517 14.5735 7.42268 
670 1 27.3048 16.3184 7.18194 
419 1 1.80875 18.1915 5.30308 
424 1 3.68929 20.0775 5.33525 
674 1 2.00099 19.996 7.25764 
677 1 3.66415 18.1598 7.21924 
420 1 0.0651377 20.0448 5.40014 
673 1 0.120938 18.2809 7.21945 
423 1 5.40631 18.1145 5.4488 
428 1 7.26755 20.06 5.48687 
678 1 5.53945 19.9913 7.3258 
681 1 7.23481 18.1866 7.31047 
427 1 9.07149 18.3119 5.46911 
432 1 10.9938 20.1688 5.40929 
682 1 9.00126 20.0488 7.33523 
685 1 10.9563 18.0209 7.27303 
431 1 12.7491 18.1076 5.47357 
435 1 16.398 18.2028 5.50453 
436 1 14.4329 20.0779 5.5218 
686 1 12.6134 19.9875 7.26682 
689 1 14.588 18.2072 7.18664 
690 1 16.4037 20.1487 7.23812 
439 1 19.9138 18.0942 5.47919 
440 1 18.0095 20.1341 5.42354 
693 1 18.2056 18.2218 7.32499 
694 1 19.9234 19.9397 7.33563 
443 1 23.7242 18.195 5.45353 
444 1 21.8106 19.7789 5.49693 
697 1 21.7608 18.1272 7.27472 
698 1 23.6903 19.9434 7.32142 
447 1 27.4848 18.3213 5.4318 
448 1 25.5494 19.8857 5.48349 
701 1 25.5838 18.0653 7.32243 
702 1 27.4551 20.1007 7.24825 
451 1 1.91072 21.9276 5.35233 
456 1 3.60576 23.7378 5.49135 
706 1 1.74555 23.7876 7.28847 
709 1 3.61029 21.8879 7.26319 
452 1 -0.0313686 23.7401 5.59401 
705 1 0.1165 21.8304 7.26057 
455 1 5.50069 21.8361 5.41268 
460 1 7.20622 23.756 5.54914 
710 1 5.48429 23.6284 7.36195 
713 1 7.22581 21.8868 7.19566 
459 1 8.99818 22.028 5.4557 
464 1 10.9306 23.6817 5.50547 
714 1 9.15767 23.8111 7.22323 
717 1 10.8604 21.8799 7.3742 
463 1 12.7755 21.9553 5.52178 
467 1 16.2799 21.8551 5.41917 
468 1 14.544 23.6962 5.67618 
718 1 12.671 23.625 7.45686 
721 1 14.5825 21.9679 7.36735 
722 1 16.5187 23.6871 7.29294 
471 1 20.1554 21.9408 5.47559 
472 1 18.2514 23.6868 5.54445 
725 1 18.3 21.8967 7.15351 
726 1 19.9736 23.6334 7.36561 
475 1 23.6302 21.8251 5.57043 
476 1 21.8636 23.8809 5.54868 
729 1 21.8353 21.7503 7.37293 
730 1 23.7772 23.6502 7.30264 
479 1 27.3503 21.8143 5.41281 
480 1 25.3759 23.6635 5.59774 
733 1 25.4945 21.7404 7.41166 
734 1 27.2873 23.6972 7.24639 
517 1 3.45749 29.0004 7.23838 
259 1 1.72406 29.02 5.43515 
483 1 1.85868 25.5245 5.45072 
488 1 3.7106 27.1983 5.45129 
738 1 1.81094 27.2964 7.25195 
741 1 3.80434 25.5364 7.23285 
737 1 -0.00301165 25.5705 7.25026 
487 1 5.43122 25.4686 5.42605 
492 1 7.1615 27.3157 5.55832 
742 1 5.49382 27.3071 7.42587 
745 1 7.24214 25.4113 7.38001 
267 1 9.06205 29.0633 5.55848 
491 1 9.14434 25.4846 5.50052 
496 1 11.0497 27.2684 5.49552 
746 1 9.11584 27.2929 7.35159 
749 1 10.9612 25.5136 7.42652 
529 1 14.6175 29.0457 7.39162 
271 1 12.7661 29.0874 5.45969 
275 1 16.4218 29.0174 5.42597 
495 1 12.8111 25.4385 5.61017 
499 1 16.5276 25.4564 5.48584 
500 1 14.5767 27.344 5.50204 
750 1 12.8555 27.3543 7.4381 
753 1 14.6444 25.4883 7.32139 
754 1 16.4105 27.2795 7.32408 
533 1 18.2641 29.0494 7.20422 
279 1 20.0162 28.9999 5.48359 
503 1 20.0005 25.4913 5.44473 
504 1 18.1722 27.1862 5.41168 
757 1 18.1952 25.6326 7.38008 
758 1 19.9341 27.252 7.30491 
537 1 21.8381 29.0978 7.33406 
507 1 23.7427 25.4678 5.41404 
508 1 21.8338 27.3243 5.48589 
761 1 21.8065 25.5478 7.4137 
762 1 23.6454 27.2276 7.37421 
541 1 25.4551 29.0698 7.1283 
484 1 29.1298 27.1969 5.44876 
287 1 27.3263 29.1499 5.40052 
511 1 27.3001 25.52 5.5141 
512 1 25.6119 27.2279 5.55432 
765 1 25.5221 25.5195 7.40641 
766 1 27.4141 27.3474 7.33445 
520 1 3.55705 1.7144 9.05893 
547 1 1.79124 3.47848 9.12062 
770 1 1.63965 1.69186 11.0874 
805 1 3.5747 3.51888 10.9009 
773 1 3.57674 -0.017216 11.0581 
524 1 7.37769 1.81844 9.09945 
551 1 5.41811 3.43647 9.11707 
774 1 5.50353 1.84032 11.0457 
809 1 7.24362 3.48708 11.105 
777 1 7.31371 0.0295536 11.0767 
519 1 5.5915 0.00348675 9.13182 
528 1 11.1049 1.78961 9.04736 
555 1 9.12194 3.63036 9.14954 
778 1 9.18126 1.81998 10.9918 
813 1 11.0775 3.63508 10.8292 
781 1 11.0322 -0.0131356 10.9939 
532 1 14.5385 1.74062 9.05126 
559 1 12.804 3.6251 9.06303 
563 1 16.4363 3.58721 9.10651 
782 1 12.8037 1.77721 10.9611 
786 1 16.4198 1.61059 10.7987 
817 1 14.6059 3.55584 10.8775 
536 1 18.2062 1.69173 9.06502 
567 1 19.9789 3.48153 9.06943 
790 1 19.9644 1.68254 11.0037 
821 1 18.2074 3.50001 11.0446 
540 1 21.9726 1.70984 9.1472 
571 1 23.6514 3.61512 9.06604 
794 1 23.7335 1.75934 10.8635 
825 1 21.8812 3.55787 10.9865 
539 1 23.8041 -0.0266304 9.09967 
516 1 29.0805 1.80791 9.20015 
801 1 29.1007 3.57617 10.9275 
544 1 25.5712 1.82814 9.01672 
575 1 27.3868 3.53824 9.07258 
798 1 27.2303 1.83714 10.9852 
829 1 25.393 3.62297 10.8401 
769 1 29.1503 0.0285929 10.9934 
543 1 27.2943 0.0337156 8.99234 
552 1 3.52633 5.34426 9.19717 
579 1 1.75441 7.09616 8.96929 
802 1 1.70218 5.46079 10.912 
837 1 3.64575 7.36681 10.9256 
548 1 0.0269817 5.3498 9.06195 
556 1 7.45338 5.4088 9.22389 
583 1 5.47928 7.34976 8.9546 
806 1 5.42223 5.44853 10.8059 
841 1 7.37538 7.21427 10.8615 
560 1 10.8409 5.48853 9.04909 
587 1 9.19243 7.29129 9.158 
810 1 9.13755 5.41334 10.9789 
845 1 10.873 7.38037 11.0025 
591 1 12.6881 7.0993 9.21726 
564 1 14.6714 5.31741 8.97976 
595 1 16.391 7.36294 9.10547 
814 1 12.9283 5.38467 11.0274 
818 1 16.4728 5.34355 10.8784 
849 1 14.5447 7.01994 10.8927 
568 1 18.1942 5.39489 9.19544 
599 1 20.0989 7.21231 9.06232 
822 1 20.0144 5.44585 10.8752 
853 1 18.1393 7.11455 10.9189 
572 1 21.9369 5.43361 9.13033 
603 1 23.7608 7.08798 8.98215 
826 1 23.6335 5.51344 10.9559 
857 1 21.7869 7.17695 10.93 
833 1 29.0348 7.4193 10.8156 
576 1 25.5504 5.40956 8.81464 
607 1 27.2511 7.3601 9.06534 
830 1 27.2018 5.39582 10.8735 
861 1 25.5058 7.13108 10.8931 
584 1 3.6023 9.04469 9.02398 
611 1 1.80631 10.9214 9.04273 
834 1 1.85839 9.05502 10.8293 
869 1 3.70541 10.8881 10.8238 
580 1 0.0582579 9.10326 9.09734 
588 1 7.32333 8.96711 8.9352 
615 1 5.53235 10.7422 8.99202 
838 1 5.46694 8.95863 10.861 
873 1 7.19178 10.9177 10.7445 
592 1 10.8498 9.08353 9.02795 
619 1 9.16327 10.8155 8.94649 
842 1 9.06881 9.09908 10.9404 
877 1 10.9155 10.7703 10.8479 
596 1 14.5178 9.0413 9.08842 
623 1 12.735 10.8634 8.97118 
627 1 16.386 10.7572 9.15942 
846 1 12.7681 9.03139 10.824 
850 1 16.374 8.985 10.9787 
881 1 14.6605 10.9016 11.0075 
600 1 18.2145 9.09437 9.15403 
631 1 20.0034 10.8972 9.19431 
854 1 19.9932 8.99721 10.8298 
885 1 18.0583 10.9416 10.8732 
604 1 21.8805 9.01299 9.21968 
635 1 23.7735 11.0066 9.10397 
858 1 23.7753 8.9625 10.8256 
889 1 21.8227 10.8376 10.913 
865 1 29.049 10.9938 10.8718 
608 1 25.4787 8.96563 9.11052 
639 1 27.2034 10.87 9.14878 
862 1 27.2954 9.02277 10.8421 
893 1 25.5991 10.9065 10.8268 
616 1 3.66729 12.6661 9.00233 
643 1 1.88786 14.6294 8.99124 
648 1 3.51626 16.4036 9.04495 
866 1 1.78644 12.7147 10.7631 
898 1 1.83494 16.2616 11.016 
901 1 3.73815 14.4402 10.7985 
897 1 0.0787762 14.6395 10.7805 
644 1 0.0114838 16.4258 9.08684 
870 1 5.38006 12.6679 10.6459 
620 1 7.26502 12.6394 9.1208 
647 1 5.54449 14.5794 9.00101 
652 1 7.36583 16.204 9.19732 
902 1 5.55766 16.1714 10.7978 
905 1 7.36098 14.3581 10.8521 
624 1 10.9155 12.6563 9.03495 
651 1 9.14162 14.3573 9.02507 
656 1 10.807 16.4154 9.18847 
874 1 9.14855 12.5107 10.9306 
906 1 9.14806 16.2762 10.9647 
909 1 10.8771 14.3991 10.8489 
628 1 14.5056 12.7174 9.05917 
655 1 12.814 14.4258 9.26903 
659 1 16.5273 14.4461 8.97453 
660 1 14.6361 16.4282 9.07268 
878 1 12.6988 12.5428 10.9162 
882 1 16.3491 12.8158 10.8558 
910 1 12.6163 16.3889 10.8089 
913 1 14.6947 14.616 10.75 
914 1 16.5048 16.3399 10.9345 
632 1 18.0962 12.6104 9.01617 
663 1 19.9302 14.5467 8.90416 
664 1 18.2284 16.4153 8.99043 
886 1 20.0026 12.7643 10.7239 
917 1 18.2265 14.5441 10.8912 
918 1 20.047 16.3482 10.7857 
636 1 21.9863 12.7253 9.07933 
667 1 23.7326 14.5695 9.08577 
668 1 21.6765 16.3491 9.03655 
890 1 23.7629 12.8255 10.8748 
921 1 21.8914 14.5763 10.7894 
922 1 23.6431 16.3717 10.9544 
612 1 29.0933 12.7308 8.9076 
640 1 25.6234 12.7351 9.04731 
671 1 27.408 14.6007 9.16078 
672 1 25.5742 16.4614 9.09464 
894 1 27.4678 12.8364 10.8223 
925 1 25.5612 14.6334 10.8951 
926 1 27.2352 16.4305 11.0223 
675 1 1.71298 18.212 9.21649 
680 1 3.72974 19.8267 9.09565 
930 1 1.88762 20.1665 10.9442 
933 1 3.69749 18.086 10.9162 
929 1 0.114486 18.1262 11.1689 
676 1 0.0849461 20.1248 9.07198 
679 1 5.44249 18.0042 9.04129 
684 1 7.22513 20.0234 9.09455 
934 1 5.51897 19.9351 10.9136 
937 1 7.25313 18.1214 10.9145 
683 1 9.01098 18.1627 8.98985 
688 1 10.8979 20.0101 9.07798 
938 1 8.95745 19.9233 10.8926 
941 1 10.8365 18.1672 10.9281 
687 1 12.8213 18.192 9.03713 
691 1 16.4455 18.2797 8.9623 
692 1 14.6489 19.9151 8.90652 
942 1 12.6578 19.8541 10.777 
945 1 14.6625 18 10.9307 
946 1 16.3206 19.942 10.8841 
695 1 20.0402 18.1827 9.01427 
696 1 18.2183 20.0683 9.11513 
949 1 18.2439 18.1639 10.7945 
950 1 20.0088 20.0565 10.8549 
699 1 23.6314 18.182 8.96671 
700 1 21.7884 19.9635 9.07208 
953 1 21.8886 18.1961 10.8629 
954 1 23.6951 20.025 10.8532 
703 1 27.4173 18.2585 9.13688 
704 1 25.5207 19.8424 9.08583 
957 1 25.4744 18.1396 10.915 
958 1 27.3919 19.9276 10.926 
707 1 1.86742 21.8645 9.12921 
712 1 3.55438 23.668 9.04795 
962 1 1.86591 23.6211 10.9272 
965 1 3.76461 21.778 10.8623 
708 1 -0.0129137 23.6821 9.02173 
961 1 -0.0385879 21.8653 10.9794 
711 1 5.40765 21.8579 9.12836 
716 1 7.16383 23.5478 9.16626 
966 1 5.33338 23.558 11.0945 
969 1 7.33303 21.9107 10.9351 
715 1 8.99856 21.8428 9.24972 
720 1 10.9385 23.6642 9.22977 
970 1 8.94491 23.7187 11.0372 
973 1 10.763 21.7942 10.9642 
719 1 12.8009 21.8444 9.11854 
723 1 16.3957 21.8339 9.0314 
724 1 14.6724 23.8257 9.14944 
974 1 12.7001 23.7024 11.0819 
977 1 14.5436 21.828 10.8768 
978 1 16.3308 23.652 10.9653 
727 1 19.9913 21.8177 9.14256 
728 1 18.1538 23.6521 9.09845 
981 1 18.1027 21.8472 11.031 
982 1 20.1104 23.699 10.8311 
731 1 23.6529 21.8945 9.04284 
732 1 21.9968 23.6299 9.05121 
985 1 21.7672 21.9002 10.8417 
986 1 23.6398 23.5772 10.9882 
735 1 27.3586 21.7759 9.13698 
736 1 25.6719 23.6528 9.15366 
989 1 25.525 21.7302 10.8128 
990 1 27.3692 23.6414 10.7799 
515 1 1.63132 29.0563 9.12964 
739 1 1.79679 25.4813 9.14332 
744 1 3.54386 27.4014 9.05161 
994 1 1.74377 27.3176 10.9992 
997 1 3.65854 25.3343 10.95 
743 1 5.35839 25.4363 9.12982 
748 1 7.37878 27.1809 9.26124 
998 1 5.38288 27.2801 10.8853 
1001 1 7.20411 25.627 10.875 
523 1 9.24185 29.07 9.09456 
747 1 9.23499 25.3972 9.14175 
752 1 10.9368 27.2839 9.07197 
1002 1 9.09786 27.2322 11.0223 
1005 1 10.9641 25.4486 10.858 
785 1 14.5369 29.0104 10.918 
531 1 16.35 29.0971 9.14368 
527 1 12.6379 29.0424 9.08813 
751 1 12.8114 25.4631 9.02624 
755 1 16.5215 25.4937 9.18592 
756 1 14.5733 27.2898 9.23394 
1006 1 12.7446 27.1801 11.0122 
1009 1 14.5508 25.4029 11.0285 
1010 1 16.3853 27.3747 10.9801 
535 1 20.0609 29.1511 9.09024 
789 1 18.1688 29.0434 10.9714 
759 1 20.1111 25.4702 9.2022 
760 1 18.2736 27.4276 9.19057 
1013 1 18.212 25.4372 10.9334 
1014 1 20.0785 27.3259 10.832 
793 1 21.9406 29.1352 10.9046 
763 1 23.6285 25.4969 9.27524 
764 1 21.9445 27.3711 9.13122 
1017 1 21.8456 25.4694 11.0232 
1018 1 23.7224 27.3307 10.906 
797 1 25.5601 29.1034 10.895 
993 1 29.1432 25.4064 10.8501 
740 1 29.11 27.4286 8.99327 
767 1 27.4583 25.4816 9.04212 
768 1 25.6186 27.2905 9.13316 
1021 1 25.6179 25.4557 10.842 
1022 1 27.5059 27.3546 10.8434 
776 1 3.49619 1.82536 12.813 
803 1 1.85771 3.55377 12.837 
1026 1 1.76781 1.77366 14.6993 
1032 1 3.583 1.89731 16.4329 
1059 1 1.75625 3.57681 16.3718 
1061 1 3.5581 3.46147 14.6223 
1057 1 -0.0392683 3.59027 14.5111 
780 1 7.26459 1.81548 12.744 
807 1 5.29432 3.6641 12.6781 
1030 1 5.44629 1.79958 14.4432 
1036 1 7.18597 1.86889 16.4251 
1063 1 5.32061 3.63802 16.4084 
1065 1 7.27728 3.69589 14.5243 
1031 1 5.51406 -0.0227725 16.3946 
1033 1 7.32725 0.0056659 14.4738 
775 1 5.42909 0.0153369 12.6339 
784 1 10.9282 1.75383 12.7214 
811 1 9.20178 3.58004 12.7424 
1034 1 9.01455 1.84546 14.4877 
1040 1 10.8166 1.79348 16.4023 
1067 1 9.05913 3.66506 16.4655 
1069 1 10.8855 3.60802 14.626 
1037 1 10.9368 0.0217822 14.6669 
1035 1 8.91392 0.0994925 16.2881 
788 1 14.574 1.79277 12.6375 
815 1 12.7335 3.57656 12.7442 
819 1 16.3743 3.45803 12.6394 
1038 1 12.7369 1.76411 14.6497 
1042 1 16.2822 1.71288 14.5831 
1044 1 14.6985 1.75995 16.4863 
1071 1 12.6964 3.72457 16.3783 
1073 1 14.5725 3.56702 14.7001 
1075 1 16.3409 3.70595 16.3586 
783 1 12.7547 0.0205298 12.7233 
1041 1 14.5389 0.0326143 14.6453 
787 1 16.4395 -0.01701 12.8806 
792 1 18.1409 1.69811 12.6728 
823 1 20.0896 3.59378 12.7868 
1046 1 19.9132 1.7752 14.637 
1048 1 18.1433 1.89813 16.4058 
1077 1 18.1459 3.62596 14.5232 
1079 1 20.0663 3.65203 16.4318 
1045 1 18.2288 0.0171224 14.5936 
796 1 21.9445 1.76898 12.9275 
827 1 23.6996 3.7224 12.683 
1050 1 23.9012 1.77189 14.4593 
1052 1 21.7154 1.7206 16.2408 
1081 1 21.8913 3.59332 14.5672 
1083 1 23.6326 3.64962 16.4494 
795 1 23.7645 0.0762078 12.6463 
1051 1 23.6746 0.0457089 16.2725 
1049 1 21.8698 0.0593981 14.6459 
772 1 29.0395 1.94157 12.69 
1028 1 29.153 1.78963 16.5209 
800 1 25.4751 1.88953 12.5554 
831 1 27.1998 3.63361 12.7553 
1054 1 27.1926 1.94314 14.5874 
1056 1 25.5018 1.76175 16.4468 
1085 1 25.475 3.70737 14.6277 
1087 1 27.3368 3.63861 16.4481 
1025 1 29.1283 0.0888504 14.5982 
799 1 27.2824 0.158281 12.8515 
1055 1 27.3149 0.0351079 16.2309 
808 1 3.53112 5.46079 12.7255 
835 1 1.81536 7.33092 12.7015 
1058 1 1.80661 5.37971 14.5667 
1064 1 3.45853 5.31731 16.3471 
1091 1 1.80592 7.36694 16.4855 
1093 1 3.54856 7.33754 14.5521 
1089 1 0.120848 7.42707 14.5345 
1060 1 0.0131883 5.46981 16.4346 
804 1 0.0768024 5.50012 12.593 
812 1 7.17764 5.41221 12.6271 
839 1 5.42327 7.28987 12.8864 
1062 1 5.32053 5.49411 14.5342 
1068 1 7.20468 5.36016 16.4289 
1095 1 5.38077 7.38798 16.4071 
1097 1 7.20327 7.30397 14.6821 
816 1 10.9801 5.40539 12.7388 
843 1 9.20648 7.20242 12.8054 
1066 1 9.10786 5.49252 14.5745 
1072 1 10.9319 5.54669 16.4766 
1099 1 9.16744 7.30127 16.401 
1101 1 10.9102 7.36597 14.5161 
820 1 14.6346 5.36648 12.9337 
847 1 12.8206 7.25873 12.7876 
851 1 16.3772 7.30781 12.6664 
1070 1 12.6274 5.65612 14.6288 
1074 1 16.3428 5.47061 14.5487 
1076 1 14.4997 5.57131 16.4099 
1103 1 12.6707 7.3405 16.5749 
1105 1 14.6263 7.21728 14.668 
1107 1 16.5309 7.23339 16.4263 
824 1 18.1983 5.3983 12.7782 
855 1 20.0117 7.17401 12.7058 
1078 1 20.0107 5.32053 14.5979 
1080 1 18.1785 5.35383 16.4622 
1109 1 18.3029 7.16433 14.5369 
1111 1 19.9896 7.15424 16.3783 
828 1 21.9739 5.37694 12.698 
859 1 23.6579 7.20774 12.657 
1082 1 23.6903 5.39819 14.5754 
1084 1 21.8645 5.4403 16.3108 
1113 1 21.7746 7.20014 14.5522 
1115 1 23.6884 7.31052 16.2087 
832 1 25.4619 5.45901 12.7649 
863 1 27.3999 7.23395 12.7093 
1086 1 27.5643 5.52021 14.4285 
1088 1 25.5141 5.53123 16.3716 
1117 1 25.5531 7.28609 14.379 
1119 1 27.283 7.24501 16.4164 
840 1 3.67999 9.21346 12.7767 
867 1 1.91734 10.9248 12.6149 
1090 1 1.73053 9.15481 14.6689 
1096 1 3.6797 9.15621 16.2661 
1123 1 1.83609 10.9528 16.4802 
1125 1 3.65914 11.0112 14.7035 
1092 1 0.0602159 9.19238 16.4001 
844 1 7.24296 9.05781 12.7535 
871 1 5.32328 11.0075 12.6402 
1094 1 5.47738 9.22823 14.5173 
1100 1 7.23821 9.08746 16.4079 
1127 1 5.52156 11.0094 16.3089 
1129 1 7.35459 10.9272 14.5702 
848 1 11.0709 9.09911 12.7576 
875 1 9.18177 10.781 12.7029 
1098 1 9.13705 9.07033 14.6575 
1104 1 10.8195 9.15815 16.4693 
1131 1 9.05489 10.9968 16.4292 
1133 1 10.9662 10.8173 14.6068 
852 1 14.4792 9.00013 12.7818 
879 1 12.9184 10.7414 12.7653 
883 1 16.4656 10.8393 12.836 
1102 1 12.821 9.03279 14.6298 
1106 1 16.5864 9.13691 14.4653 