ITEM: TIMESTEP
0
ITEM: NUMBER OF ATOMS
500
ITEM: BOX BOUNDS pp pp pp
0 8
0 8
0 8
ITEM: ATOMS id type x y z 
16 1 0.645192 1.77404 1.56472 
270 2 0.51657 1.46884 0.545057 
78 1 0.627873 0.797034 1.44311 
46 1 1.88686 0.939198 1.78875 
76 1 0.628218 0.438043 0.155331 
378 2 2.32851 1.94619 2.25956 
156 1 2.66385 1.38529 0.984049 
387 2 1.42274 1.33815 0.780126 
99 1 1.47336 2.03359 1.66031 
417 2 0.625722 2.45379 0.742282 
342 2 2.65662 2.56497 1.12152 
259 2 1.09223 1.23668 2.30813 
479 2 1.58859 2.55889 0.619297 
437 2 2.43076 0.303988 1.07716 
344 2 1.3998 0.357954 2.4665 
354 2 1.51837 0.343401 0.762371 
49 1 0.24814 1.59262 2.49064 
303 2 3.00058 0.386752 1.87678 
228 1 4.55702 1.03502 1.29631 
206 1 3.55921 1.08131 1.1284 
435 2 4.35712 1.54309 0.26692 
372 2 3.0702 1.42978 2.23292 
388 2 4.09011 0.619058 0.131542 
282 2 4.07501 1.98367 0.986134 
271 2 4.91568 0.775913 2.42961 
313 2 4.02333 0.118983 1.49906 
196 1 4.98855 2.20614 2.39423 
498 2 4.02846 1.0178 2.30928 
340 2 3.2677 1.65249 0.13976 
371 2 2.87881 0.477989 0.167772 
381 2 4.50355 2.46876 0.172786 
116 1 5.08318 0.772034 0.375747 
314 2 5.04725 1.98817 1.09985 
401 2 4.84106 0.0804473 0.966451 
167 1 3.96131 1.98804 1.94729 
43 1 2.69609 2.55131 0.0629449 
230 1 7.56818 2.49804 1.25668 
312 2 7.59386 1.79264 0.387274 
274 2 7.64195 1.26688 1.20043 
293 2 5.50899 0.789976 1.40717 
141 1 6.41979 2.58631 1.42242 
333 2 6.94872 0.565094 0.988452 
237 1 5.89776 1.49716 0.675335 
201 1 7.74004 0.764373 0.226155 
90 1 6.51397 1.00179 1.94082 
61 1 6.75518 1.71807 0.981535 
284 2 7.36605 1.75254 1.92412 
444 2 6.58942 1.96673 2.36459 
404 2 5.84917 1.69514 1.73569 
132 1 6.16908 0.119684 2.27717 
258 2 6.45468 0.719106 0.0528539 
289 2 7.82875 0.203386 2.16499 
183 1 7.88203 0.146579 1.02144 
321 2 6.65922 2.57063 0.297202 
428 2 5.71953 2.45639 0.333235 
364 2 1.17128 3.32271 0.877003 
240 1 2.01731 3.1641 2.24274 
249 1 0.0865888 3.38834 1.12566 
419 2 1.65237 4.79689 1.90986 
44 1 0.674406 4.1032 1.368 
109 1 1.33656 3.81248 1.87614 
54 1 0.621074 5.24323 0.553016 
462 2 1.32191 4.5202 0.757093 
357 2 2.53376 5.16049 1.84269 
319 2 0.851368 2.88481 1.77898 
59 1 2.19577 4.40556 0.0468701 
494 2 2.05878 3.24984 1.22079 
142 1 0.0876595 3.98099 2.31918 
170 1 0.622386 4.92387 2.01439 
418 2 2.29961 4.62405 1.04104 
119 1 2.44693 4.04693 1.91967 
451 2 2.01278 3.31223 0.168517 
239 1 0.520728 3.78196 0.270367 
111 1 2.95613 2.71101 2.30252 
123 1 3.57841 2.74758 0.537036 
218 1 3.62187 2.85807 1.49413 
409 2 3.39417 3.58773 2.20255 
420 2 2.98101 3.67373 1.02302 
476 2 4.32387 3.02846 2.24281 
361 2 4.38973 4.77472 1.09157 
140 1 4.26786 3.87869 1.61664 
386 2 5.31408 4.20994 1.44087 
318 2 4.77913 2.98482 1.05033 
216 1 3.98319 3.57332 0.577103 
202 1 3.31835 4.5001 1.51403 
134 1 4.88781 3.92637 2.48113 
151 1 5.16756 5.07534 0.448082 
402 2 3.59644 4.4593 0.583317 
335 2 3.20544 5.25108 2.35485 
178 1 4.714 4.03747 0.496678 
200 1 2.80338 5.09974 0.208963 
311 2 5.17587 5.24024 1.52818 
12 1 4.42447 4.69777 2.10534 
356 2 7.9812 2.68414 2.23309 
414 2 5.75711 3.31136 0.87697 
454 2 7.64961 2.96401 0.220579 
288 2 7.83137 5.03588 1.39908 
102 1 7.92796 4.49866 0.270963 
326 2 7.10933 3.09604 1.95359 
269 2 7.44106 4.14971 1.54058 
349 2 7.01013 3.96471 2.47868 
182 1 7.73432 4.83241 2.4731 
159 1 5.91448 3.86288 2.26779 
377 2 7.0215 5.21484 0.861834 
165 1 6.12809 4.79418 1.18503 
84 1 6.93508 3.36575 0.943417 
23 1 6.82427 4.83579 1.81636 
310 2 5.94523 4.9327 2.39487 
101 1 6.47249 3.98602 1.47803 
432 2 6.19896 2.82162 2.44847 
82 1 5.43272 3.05165 1.74034 
358 2 6.63404 4.17145 0.376989 
376 2 5.74192 4.18567 0.18154 
302 2 1.91773 5.43142 0.549403 
195 1 2.14803 7.82288 0.0584825 
229 1 1.83831 7.6986 1.60526 
115 1 2.48665 6.53848 1.62292 
412 2 1.33528 7.38666 0.577914 
191 1 0.880801 6.19309 0.702583 
413 2 1.21631 6.80954 1.45004 
391 2 1.49833 5.76942 1.43423 
231 1 0.510016 6.07511 1.62823 
108 1 0.811248 7.83313 1.78181 
226 1 1.78929 7.02782 2.4372 
316 2 1.86121 6.48448 0.711184 
136 1 0.197359 7.2698 0.854001 
491 2 1.29617 5.98447 2.2898 
411 2 2.4661 7.24764 0.836152 
268 2 0.692478 6.91183 2.22509 
95 1 0.243093 5.74142 2.61686 
21 1 0.0527949 6.76828 0.137061 
455 2 3.5856 7.7723 2.4545 
245 1 3.27373 7.85864 0.971992 
460 2 4.86874 7.92684 1.98731 
207 1 3.64058 5.55622 0.856739 
29 1 2.692 5.80851 1.06905 
430 2 2.69631 7.44309 2.09481 
129 1 4.56885 5.90305 0.967986 
19 1 4.27976 6.96315 1.95106 
277 2 4.16491 5.80137 2.00176 
261 2 3.51664 6.36188 1.52045 
273 2 3.26237 6.50881 0.549638 
224 1 4.04036 7.06498 0.973906 
235 1 5.00426 6.26289 1.74549 
442 2 5.05494 5.4246 2.52399 
52 1 5.153 6.80877 0.373535 
131 1 3.50203 7.54095 0.0796684 
375 2 5.7421 5.86537 0.913553 
107 1 5.83092 6.16602 1.95299 
497 2 5.43376 7.16545 1.25923 
331 2 7.90624 5.87682 0.667838 
205 1 6.19298 7.92505 1.20031 
184 1 6.41412 6.99106 1.7728 
390 2 7.03753 7.7724 1.83493 
362 2 7.48757 5.81495 1.89089 
439 2 6.16903 6.97001 0.619818 
64 1 7.18067 7.50371 0.893774 
185 1 7.27057 6.7282 1.29467 
329 2 6.45226 5.97076 0.228979 
79 1 6.65712 6.02079 1.38285 
431 2 7.53365 6.56057 2.46249 
74 1 5.68092 7.90238 0.383487 
256 2 6.83756 5.72514 2.56927 
429 2 5.52279 7.21851 2.35447 
38 1 7.16187 6.71979 0.312594 
482 2 1.54634 2.29908 2.69252 
281 2 2.1941 1.10374 2.81048 
197 1 1.00943 1.51207 3.25797 
383 2 1.35563 0.358795 3.54828 
158 1 1.32177 1.35137 4.12576 
18 1 1.39019 2.42072 3.8105 
4 1 2.40156 2.11893 3.32534 
155 1 0.275104 0.618868 4.03397 
317 2 0.416276 2.19246 3.72959 
346 2 2.26204 0.540378 3.72947 
67 1 2.05712 1.96698 4.22646 
291 2 0.271672 1.57174 4.8316 
337 2 2.30742 1.14979 4.81119 
241 1 0.973403 0.838628 4.85614 
36 1 0.488753 0.62073 3.0959 
267 2 0.649825 2.55983 2.80765 
217 1 1.12466 2.02293 4.94582 
480 2 0.16585 2.4915 5.13686 
275 2 2.82443 1.36149 3.85185 
73 1 3.17881 0.786806 2.96804 
177 1 4.20689 0.549803 3.21997 
243 1 3.41026 1.35335 4.75824 
80 1 4.46669 1.44341 3.16922 
343 2 3.29646 0.472045 4.10017 
22 1 2.7906 0.23632 5.07103 
341 2 3.46301 1.76753 3.11117 
474 2 4.08384 2.327 4.94387 
385 2 3.86249 1.92064 4.02283 
347 2 4.52269 1.30021 4.46748 
98 1 4.14356 0.0607614 4.40725 
368 2 3.01796 2.35992 4.45792 
11 1 4.8978 0.497057 3.86909 
69 1 4.91745 2.01 3.73811 
367 2 4.07559 2.44323 3.17678 
150 1 3.93485 0.778135 5.20667 
212 1 7.24557 1.14854 2.74871 
88 1 5.86728 0.93331 2.69206 
32 1 7.88352 1.32634 3.57077 
198 1 5.39603 0.108541 3.01606 
128 1 6.90671 0.362785 2.69934 
320 2 5.7692 1.21041 3.69153 
485 2 7.40584 0.585975 4.4682 
199 1 6.86562 1.2122 3.57852 
188 1 7.43405 2.04769 2.96004 
365 2 5.89878 2.09577 3.30087 
124 1 6.45519 1.54722 4.43549 
283 2 6.63778 2.37081 3.89909 
234 1 7.50981 1.90523 4.34452 
50 1 5.64769 1.02625 4.66311 
263 2 7.40007 0.280499 3.55462 
104 1 6.15164 0.381101 5.21523 
489 2 6.37536 0.436581 4.12522 
490 2 5.86213 2.04477 5.11282 
396 2 6.97982 2.59311 5.01076 
162 1 6.80276 1.02827 5.22545 
352 2 0.876401 4.34028 2.90643 
3 1 0.130211 3.40312 3.12592 
91 1 1.04835 3.42742 2.72093 
380 2 1.83716 4.30214 2.7741 
453 2 0.956159 3.81516 3.60595 
58 1 1.25788 4.84329 3.99613 
353 2 1.6769 3.45904 4.57252 
173 1 2.11523 4.16271 3.96765 
110 1 0.483245 5.20943 4.91819 
478 2 1.19429 4.22473 4.86945 
175 1 0.502536 3.44369 4.61669 
42 1 1.74744 3.24057 3.16647 
339 2 2.4225 3.1615 3.9305 
395 2 1.91965 5.17909 4.82902 
62 1 0.366403 4.62388 3.96104 
359 2 2.18842 2.69547 4.97157 
232 1 2.54429 3.92213 4.78697 
472 2 1.2305 5.18223 2.97938 
223 1 1.19945 2.95789 5.2456 
328 2 5.12679 2.94692 3.18727 
210 1 3.11933 2.86151 3.23526 
286 2 2.8509 5.09449 4.17601 
130 1 3.06493 3.94424 3.82182 
449 2 4.37142 3.0442 3.97329 
459 2 5.02086 3.8059 3.65016 
68 1 4.40873 3.91511 4.44848 
464 2 3.64671 4.44414 2.68631 
126 1 3.86844 3.54867 3.21299 
441 2 2.68691 3.86105 2.89949 
152 1 3.49916 3.30721 4.41822 
434 2 4.22071 4.67677 3.60427 
436 2 5.21716 4.52818 5.13565 
252 2 3.60337 4.63677 4.46732 
495 2 4.21826 3.2533 5.19765 
262 2 4.6694 4.95272 4.52283 
10 1 2.75544 4.897 3.194 
77 1 5.06539 2.89598 4.88598 
488 2 5.23155 4.6928 3.07926 
448 2 3.61498 5.30861 5.14087 
37 1 4.21949 4.35428 5.31174 
300 2 7.3629 4.24517 3.34081 
117 1 7.80685 2.84358 4.29129 
332 2 6.09503 3.01106 4.98091 
121 1 7.67827 5.32235 3.31144 
415 2 5.77554 4.54676 3.93467 
1 1 6.0865 3.10706 3.44295 
238 1 7.17881 3.18376 3.22558 
143 1 5.60594 2.71161 4.13341 
227 1 7.79454 3.7967 4.2201 
424 2 6.63863 3.85874 4.26448 
486 2 5.58049 3.89404 4.54777 
213 1 6.53567 5.31931 3.37661 
246 1 6.18347 4.90985 4.79495 
247 1 6.32572 4.19202 3.12765 
438 2 7.08987 4.68008 4.23298 
63 1 7.05876 3.55838 5.24602 
369 2 7.96914 4.24199 5.24358 
400 2 2.1536 7.99563 2.83847 
204 1 1.85963 5.66353 3.60062 
350 2 1.16894 7.59853 2.94671 
157 1 2.18258 5.56943 2.6883 
484 2 0.61287 7.65778 3.80423 
295 2 2.58556 5.6953 5.16604 
172 1 2.08845 7.1662 3.47553 
393 2 2.0802 7.8049 4.35191 
222 1 2.52092 6.59505 2.75597 
410 2 1.15651 5.96736 4.39836 
81 1 1.43683 6.93589 4.37213 
345 2 2.08338 6.22516 4.35793 
244 1 1.31604 6.5049 3.16179 
315 2 2.25418 6.85819 5.10628 
265 2 0.648593 5.66577 3.62128 
426 2 0.460126 7.12776 5.21772 
308 2 0.263012 7.93716 4.81919 
193 1 0.22137 6.62223 3.34826 
192 1 0.445562 6.7242 4.21974 
164 1 1.3784 7.61338 5.20767 
298 2 0.118809 6.14854 5.17019 
14 1 3.93347 7.68526 3.59138 
294 2 3.63239 6.8603 2.68773 
53 1 3.07535 7.68111 3.36538 
70 1 3.15417 5.87683 3.25234 
463 2 2.85137 6.62034 3.94866 
481 2 4.00249 5.35984 2.7828 
13 1 3.32714 7.50763 4.29689 
24 1 3.42699 6.31378 4.7804 
149 1 4.49411 7.41063 2.83076 
323 2 4.4958 6.28428 2.91692 
97 1 3.79639 5.54826 4.00498 
397 2 5.00003 7.46138 3.71422 
66 1 4.72431 5.67467 3.69854 
113 1 3.92788 6.53972 3.70514 
338 2 4.36215 7.01151 4.49149 
279 2 4.54194 6.14297 4.60297 
89 1 4.92182 7.5334 5.20415 
398 2 3.75691 7.64374 5.30897 
28 1 5.30496 6.7303 5.0849 
450 2 7.35738 5.41595 4.99892 
85 1 5.57283 7.92883 4.57114 
112 1 5.66027 5.52111 3.97277 
475 2 6.55496 7.17307 2.72104 
194 1 6.58418 5.6206 4.3375 
153 1 7.97327 7.50842 2.85286 
467 2 5.35701 6.7303 3.08019 
406 2 5.93119 5.93311 2.86916 
278 2 7.06541 6.36782 3.27677 
57 1 6.15059 7.65211 3.4708 
179 1 6.48921 7.63141 4.76124 
272 2 6.28304 6.35131 3.71243 
440 2 5.57042 6.90866 4.11379 
146 1 7.70443 7.19758 3.95623 
366 2 7.57077 5.9688 4.14638 
39 1 6.8794 7.05704 3.99306 
71 1 7.13413 6.47034 5.16641 
25 1 5.42889 5.62807 5.00133 
399 2 6.23724 6.53595 4.73609 
118 1 7.35168 7.45046 5.16727 
65 1 0.0632867 1.1431 7.40931 
225 1 0.668599 0.349526 5.66454 
27 1 1.76127 0.559598 7.77465 
466 2 0.933583 1.94474 6.86634 
496 2 2.32294 1.52425 7.81436 
309 2 1.75255 1.43686 6.2319 
34 1 1.81442 2.41348 7.61995 
93 1 1.08716 2.01019 7.84091 
83 1 1.59863 1.24424 7.21792 
299 2 0.142164 2.13235 7.61956 
493 2 1.63136 0.219276 6.45411 
470 2 0.840946 1.60921 5.82077 
190 1 0.777508 0.960687 6.65871 
154 1 0.600459 2.59598 6.19002 
40 1 2.5903 0.918891 5.77509 
483 2 2.34796 1.96997 6.72218 
168 1 2.5034 0.776887 6.7735 
6 1 1.6912 2.19338 5.69752 
45 1 0.651689 0.181554 7.098 
92 1 1.82017 0.412591 5.52635 
260 2 5.10309 0.55595 5.34458 
208 1 2.78195 1.92651 5.62215 
248 1 4.65299 0.756037 7.25815 
305 2 3.45827 0.740831 6.31771 
468 2 3.79029 1.91809 5.65887 
87 1 4.62426 0.607808 6.22751 
161 1 4.6262 2.52644 5.86593 
133 1 3.85954 0.145426 7.25395 
181 1 4.23009 1.37478 6.64853 
219 1 3.34721 0.926985 7.40723 
15 1 4.03399 1.88856 7.29584 
7 1 4.92719 1.63176 5.43696 
363 2 5.20054 1.50719 6.62681 
100 1 3.24836 2.36873 7.3001 
86 1 5.04223 2.24796 7.31979 
384 2 3.2585 1.62237 6.47032 
221 1 7.41158 1.77608 5.40051 
307 2 7.86091 0.551212 6.437 
403 2 7.99638 1.74768 6.37075 
35 1 5.64688 1.63296 7.57712 
174 1 7.30613 1.60392 7.05318 
9 1 7.43285 2.58388 6.90462 
166 1 7.78996 0.826683 5.36711 
257 2 5.5992 2.34216 6.00123 
457 2 6.74682 1.58082 7.90163 
445 2 5.95877 1.35755 5.8033 
122 1 6.00751 2.43779 7.29455 
452 2 6.98802 0.923803 6.24384 
322 2 6.59754 2.09765 6.30505 
145 1 6.24055 1.20129 6.89098 
422 2 5.64161 0.565426 7.47056 
443 2 7.46182 0.268032 7.30776 
106 1 6.37451 0.185684 6.89862 
211 1 1.83424 4.34761 5.62515 
51 1 1.05817 3.10211 7.85059 
255 2 0.72607 4.39231 5.75053 
327 2 1.1887 4.73857 6.5073 
427 2 0.335203 3.67588 6.6208 
135 1 1.41061 3.7617 6.61305 
72 1 1.72056 2.71178 6.70839 
408 2 1.32892 4.14321 7.5537 
382 2 0.706008 4.90407 7.54728 
324 2 2.22522 3.52079 7.28392 
425 2 0.373558 3.47207 5.74254 
276 2 0.190816 3.15162 7.26833 
171 1 2.34643 4.46764 6.85034 
334 2 1.94264 5.16918 6.18122 
500 2 2.02136 3.36981 5.73247 
20 1 0.0822317 5.30396 5.75237 
33 1 3.14377 3.55535 7.99589 
264 2 3.38321 3.83651 5.38826 
280 2 4.31638 3.29386 7.58706 
56 1 3.27249 2.78667 5.43803 
60 1 2.7831 4.65849 5.39746 
253 2 2.73987 2.80736 6.46555 
292 2 3.34777 4.49741 7.40311 
405 2 4.29231 2.7492 6.7975 
477 2 3.995 3.36774 6.14466 
125 1 4.39721 4.7797 7.94607 
285 2 2.80464 3.9051 6.14335 
94 1 4.25947 4.10357 6.95666 
147 1 3.43645 3.4351 7.07686 
301 2 5.19494 3.93112 7.36844 
189 1 4.84057 4.14992 5.99013 
215 1 3.76733 4.46368 6.0926 
389 2 4.8603 4.86273 6.93565 
186 1 3.00285 5.09946 6.18992 
203 1 6.26213 5.09203 7.9139 
499 2 6.29496 3.87473 7.52978 
458 2 6.18453 3.96929 5.43402 
360 2 7.60709 2.77874 5.82504 
214 1 7.74174 5.29555 7.7474 
407 2 7.14321 4.54268 5.5159 
348 2 5.35035 3.10842 6.7092 
421 2 7.18329 3.43838 7.50697 
236 1 6.35192 3.02051 5.91812 
266 2 5.7232 4.84937 5.86559 
492 2 7.77815 4.65553 6.52721 
137 1 5.34167 3.43543 5.69686 
169 1 7.99009 4.10532 7.41775 
105 1 6.57039 4.59695 6.49189 
465 2 7.0752 4.46577 7.53194 
330 2 5.38977 3.23758 7.9064 
127 1 7.35968 3.66204 6.3406 
242 1 6.45945 3.13096 6.9217 
55 1 5.67594 3.98544 6.50278 
139 1 5.77935 4.71732 7.06924 
144 1 1.15578 5.45717 5.54953 
26 1 1.43414 6.3004 5.38488 
336 2 1.3133 6.46348 7.74929 
163 1 0.494526 5.92405 7.60234 
392 2 1.74816 7.35631 7.01411 
148 1 1.07277 5.78441 6.44664 
209 1 1.61916 6.72271 6.16951 
17 1 1.00279 7.47899 6.22279 
433 2 0.804214 6.71447 6.90097 
2 1 2.40069 7.64611 6.20388 
120 1 1.91619 6.21375 6.95897 
187 1 1.75431 5.45784 7.43216 
394 2 0.975825 7.41525 7.66265 
471 2 0.558145 6.6005 5.92029 
446 2 2.479 6.11538 6.05421 
180 1 2.58847 6.82459 7.59206 
373 2 0.00246864 7.63279 5.90326 
355 2 0.037339 6.1336 6.56855 
251 2 4.75224 7.7457 7.83125 
423 2 3.71618 5.53959 7.84462 
5 1 5.12661 7.87949 6.93971 
325 2 3.41729 7.78869 6.30193 
297 2 3.40087 6.03991 6.0469 
304 2 3.19091 7.03027 5.73507 
351 2 2.82217 7.80987 7.1177 
254 2 4.46363 7.52499 6.21578 
41 1 2.78015 5.48313 7.21062 
160 1 4.72035 5.74192 5.69857 
47 1 4.02998 5.34803 6.68691 
250 1 3.58642 6.24548 7.09232 
31 1 4.80387 6.83444 7.38207 
374 2 4.04556 6.51418 7.99171 
287 2 5.0686 6.77232 6.2185 
103 1 2.91801 6.86435 6.66505 
138 1 4.32177 6.19313 6.51457 
461 2 4.84556 5.72804 7.59613 
487 2 3.96912 7.08921 6.79964 
233 1 4.32902 6.73346 5.49674 
290 2 5.27953 5.89104 6.59533 
447 2 7.8426 7.71928 7.93625 
296 2 6.76911 6.49741 7.2181 
48 1 6.30978 5.7504 5.48058 
416 2 5.60058 7.82479 6.04866 
469 2 6.84758 7.9571 5.90028 
306 2 6.94643 5.41802 7.26717 
8 1 5.8253 6.39526 7.52769 
96 1 7.17644 5.87605 5.94097 
75 1 6.96507 7.46416 6.78569 
456 2 6.32005 6.64553 6.31404 
220 1 7.266 6.88648 6.03054 
379 2 6.19203 5.66873 6.50634 
30 1 7.67255 6.23331 7.53996 
114 1 5.83067 7.38972 7.38626 
370 2 6.70951 7.52661 7.91545 
176 1 7.82494 7.25464 6.95124 
473 2 6.3978 7.14506 5.56541 
ITEM: TIMESTEP
20000
ITEM: NUMBER OF ATOMS
500
ITEM: BOX BOUNDS pp pp pp
0 8
0 8
0 8
ITEM: ATOMS id type x y z 
476 2 2.66539 2.27278 1.20338 
365 2 0.563586 1.67339 1.82837 
340 2 0.980878 0.901213 1.06618 
316 2 1.41478 1.86116 2.26404 
371 2 2.65076 1.13408 0.161874 
216 1 1.05971 2.13847 1.07348 
183 1 2.19084 0.617133 2.01287 
19 1 2.4318 1.60312 2.6218 
176 1 1.94212 0.472848 0.448131 
220 1 2.14606 1.38832 1.38016 
471 2 0.231331 0.58633 0.419428 
192 1 1.28568 0.88917 2.16594 
38 1 1.7326 1.48603 0.452676 
378 2 1.90128 2.45645 0.611045 
453 2 0.0345047 2.15174 1.12559 
392 2 1.46842 0.115881 1.42131 
40 1 0.200188 1.58752 0.342507 
1 1 0.470399 0.425953 1.98162 
259 2 0.600959 2.56602 2.16909 
14 1 2.22667 2.42291 2.19862 
327 2 0.938554 0.0109288 0.515728 
278 2 0.0794758 2.6579 0.0315077 
394 2 2.98839 0.312679 1.31232 
364 2 3.13751 1.86845 0.535921 
496 2 3.27713 1.32036 1.36175 
303 2 4.24245 1.7657 2.0245 
257 2 3.22304 1.96642 2.04713 
119 1 3.93074 2.49417 1.35473 
233 1 5.30089 0.373711 1.26272 
219 1 3.86773 2.60101 0.37672 
191 1 3.63149 0.934055 2.39587 
116 1 5.03432 2.35291 1.91337 
248 1 4.91462 1.82874 1.06442 
310 2 4.5738 0.955566 1.72676 
168 1 4.1061 1.63843 0.774681 
41 1 3.59329 0.707614 0.301014 
463 2 4.97865 1.44846 2.57283 
87 1 4.50519 0.831916 0.567959 
107 1 4.46448 0.174309 2.39813 
333 2 5.33726 1.67555 0.145547 
388 2 6.18993 2.02043 1.84196 
324 2 7.27689 0.975733 0.384809 
344 2 6.5194 0.41472 1.48266 
349 2 5.98743 0.998013 0.851215 
101 1 6.82324 1.49667 1.21775 
457 2 5.93413 2.19604 0.890118 
322 2 6.45867 0.400261 0.0291454 
44 1 7.04316 2.34587 0.802067 
132 1 7.21317 2.20765 1.80985 
143 1 6.66567 1.25189 2.26208 
490 2 7.41502 0.548929 2.13088 
300 2 7.81858 0.93557 1.28629 
263 2 7.86779 1.29276 2.39082 
367 2 5.66029 1.11723 1.82622 
106 1 6.4864 0.200721 2.51184 
328 2 5.58863 0.523592 2.49123 
366 2 7.81945 2.49823 2.61293 
383 2 2.34959 3.27383 1.25757 
341 2 0.927962 4.01798 1.56416 
195 1 1.50253 2.78183 1.68409 
42 1 0.548226 3.12083 1.1964 
77 1 1.84747 4.3366 2.2068 
337 2 1.79692 5.23067 1.78905 
438 2 0.734122 3.8398 2.48832 
420 2 0.5691 4.84868 1.86851 
73 1 2.1764 3.38701 0.119823 
82 1 1.41357 3.60667 0.81057 
43 1 0.929165 4.48441 0.319011 
358 2 0.449523 5.19024 0.911247 
339 2 1.92241 4.61137 0.70045 
210 1 2.63648 4.27781 1.65997 
319 2 0.142415 3.72107 0.247405 
12 1 2.51844 3.46777 2.40136 
470 2 1.32291 2.95298 2.61946 
317 2 1.19083 2.90668 0.089918 
205 1 5.27036 2.87538 0.639052 
68 1 3.65731 4.71073 2.41059 
398 2 3.95949 3.73071 0.550047 
34 1 3.05987 2.9551 0.576474 
97 1 5.00876 3.91004 0.543436 
434 2 5.06608 3.55109 2.35721 
277 2 4.29026 4.48951 1.03769 
314 2 4.56602 3.36478 1.45575 
182 1 2.76825 3.97587 0.549827 
90 1 5.06952 4.98825 1.8343 
439 2 3.5359 3.55895 1.37165 
125 1 3.27432 4.73684 1.14635 
498 2 3.93025 3.25668 2.14317 
25 1 5.19989 5.06383 0.837833 
441 2 4.47593 4.20235 2.15639 
486 2 3.25706 2.80399 2.63925 
61 1 5.77906 2.79552 2.63579 
3 1 7.83035 3.24399 1.72122 
213 1 7.44918 5.12343 1.14715 
256 2 7.36829 3.38293 0.699766 
432 2 6.12101 3.50721 0.68027 
46 1 7.84397 4.08022 2.17152 
95 1 7.93417 4.32701 1.1644 
330 2 6.01169 4.44495 0.217753 
429 2 6.78471 3.92913 1.53603 
488 2 5.68264 3.94637 1.47824 
241 1 6.11129 4.96581 1.76458 
21 1 6.48103 4.92992 0.965602 
37 1 7.03508 3.13796 2.44043 
67 1 6.53223 2.95936 1.4486 
23 1 7.18355 4.72901 2.00997 
203 1 7.00993 4.458 0.385171 
79 1 5.63558 4.51698 2.51194 
194 1 6.5173 2.80139 0.0881375 
136 1 0.34377 7.54553 2.31056 
430 2 1.66583 5.99307 0.856075 
361 2 2.45931 5.52047 0.515149 
352 2 1.86688 6.20757 1.79835 
78 1 0.848423 5.83958 1.68907 
265 2 1.46926 7.68636 2.3243 
231 1 1.72134 7.09018 1.29719 
144 1 2.43254 7.60745 0.8389 
180 1 2.55984 6.61643 0.729783 
287 2 0.435218 5.54791 0.111312 
59 1 0.868811 6.71585 1.21168 
164 1 1.41841 7.06069 0.433457 
76 1 0.358045 7.22547 0.651853 
133 1 2.66522 7.59595 2.44096 
75 1 0.13682 7.89795 1.23343 
60 1 0.023037 6.26401 0.864209 
449 2 0.947355 6.76497 2.25654 
419 2 2.48018 6.20134 2.54408 
239 1 0.242859 5.58664 2.49753 
57 1 1.21544 5.72753 2.64389 
292 2 0.69414 6.41371 0.0959841 
201 1 4.84296 7.70134 1.6984 
198 1 4.44194 5.36396 0.550398 
404 2 4.16477 5.36631 1.71247 
173 1 2.99401 5.52034 1.74955 
54 1 3.36485 7.14317 0.417896 
163 1 3.0248 7.00931 1.54951 
113 1 3.53172 6.24938 1.90138 
105 1 4.72656 6.18686 1.2802 
5 1 4.14391 6.97382 1.68512 
423 2 4.75938 7.78059 0.290476 
296 2 4.45273 6.95245 0.698368 
374 2 3.54245 7.89667 2.01197 
456 2 4.00306 7.83937 0.994474 
307 2 3.78685 6.21073 0.915626 
411 2 5.04948 6.16911 0.0846565 
204 1 3.48114 5.67144 2.64596 
387 2 4.73726 7.13332 2.64477 
261 2 4.53345 6.02274 2.29388 
141 1 5.89817 7.63711 1.93996 
409 2 5.77849 5.45184 0.0694973 
251 2 5.3478 6.83345 1.94185 
108 1 5.58862 6.88397 0.810035 
474 2 5.48706 5.8967 1.99182 
13 1 5.68881 7.95327 0.512954 
36 1 7.12703 7.8049 0.731198 
139 1 7.22376 7.56984 1.6276 
64 1 6.33803 7.0443 2.6357 
459 2 6.27534 6.51379 1.78571 
452 2 7.04877 6.64651 1.1561 
427 2 7.18632 6.70329 2.22764 
209 1 7.75813 5.88632 1.83643 
375 2 7.982 6.92928 1.64993 
408 2 6.75415 5.72564 1.59881 
297 2 6.87954 5.83798 0.522166 
454 2 6.43306 7.20497 0.259722 
224 1 5.91046 5.86084 1.01579 
8 1 7.48335 7.06619 0.136989 
462 2 1.81127 2.31397 3.22389 
247 1 0.677228 1.85943 3.0692 
185 1 2.64588 1.1193 3.9307 
356 2 1.68582 0.962765 3.3705 
391 2 2.37312 2.11115 3.9787 
460 2 0.365266 1.92351 4.99237 
225 1 1.44324 1.40934 4.62075 
346 2 1.98944 0.148647 2.95818 
35 1 1.25147 0.19464 4.18241 
22 1 0.562971 0.721349 4.72038 
483 2 2.22858 0.470939 4.65869 
258 2 0.515464 1.13172 3.71718 
18 1 0.829907 2.23429 3.9411 
306 2 1.6674 2.43598 4.73118 
243 1 2.23065 1.62867 5.12998 
58 1 0.236056 0.149142 4.0221 
309 2 0.938563 0.273331 2.9418 
382 2 2.73988 0.677474 2.80662 
111 1 4.74247 2.48323 2.75212 
206 1 3.24826 1.55309 3.27428 
405 2 3.21195 1.82459 4.62626 
252 2 4.28306 0.965398 3.22434 
149 1 3.71031 0.56655 3.92327 
275 2 5.23397 0.69524 3.38096 
80 1 4.33047 1.33001 4.22909 
130 1 3.89932 2.04808 2.90569 
385 2 3.42918 2.46904 5.27871 
350 2 3.50763 0.777496 4.93146 
66 1 4.79807 1.79405 3.52501 
399 2 4.43505 0.676133 5.10373 
407 2 5.08812 2.43848 4.71494 
2 1 3.30257 2.48812 3.70056 
262 2 4.07823 2.26926 4.54907 
29 1 3.49005 0.0179868 3.0905 
475 2 7.50802 1.75544 3.26773 
269 2 7.79817 2.16176 4.20664 
161 1 5.3668 0.725747 4.98249 
289 2 7.76897 0.695132 3.24997 
88 1 7.56059 1.00149 4.28423 
232 1 5.48476 1.42443 4.05992 
274 2 6.00985 0.148342 3.64077 
157 1 5.86772 1.79345 2.98274 
199 1 6.61769 1.00849 4.31527 
348 2 6.6972 1.87649 3.72279 
313 2 5.77817 1.75365 4.94954 
9 1 7.08193 1.78871 4.76421 
188 1 6.76006 0.983825 3.35354 
112 1 6.81138 2.21827 2.71651 
495 2 5.72731 2.40673 3.79698 
91 1 6.8183 2.65643 4.49758 
98 1 6.22006 0.162291 4.61258 
152 1 7.25148 0.387237 5.00382 
155 1 7.62719 2.57954 5.23346 
286 2 0.987447 4.60512 2.97139 
484 2 2.59813 4.95494 2.66873 
109 1 0.519259 2.82147 3.29976 
431 2 2.06908 4.13526 3.22115 
211 1 0.938689 3.81341 4.56633 
56 1 1.21041 3.75405 3.51431 
380 2 0.279946 4.54544 4.23555 
413 2 2.47037 4.93273 3.94403 
148 1 1.54161 3.16052 4.08359 
478 2 0.84383 2.83742 4.925 
464 2 2.53032 3.17667 3.39358 
395 2 0.197287 3.78828 3.48172 
381 2 2.12759 4.07688 4.39136 
20 1 0.184775 4.80305 5.29189 
235 1 1.32196 4.74555 4.04987 
244 1 1.69226 5.23836 3.3604 
351 2 1.12028 5.00471 5.01876 
421 2 0.264322 3.75569 5.23801 
281 2 2.00303 3.26414 4.99093 
285 2 2.35557 4.93178 5.03572 
494 2 4.40408 4.23047 3.2015 
138 1 3.8483 3.26766 3.43778 
315 2 2.75004 2.76375 4.48962 
415 2 4.5973 2.75785 3.91198 
446 2 3.02491 4.12131 3.84068 
228 1 3.68187 3.25817 4.38454 
83 1 3.32467 3.95907 2.89117 
491 2 3.55441 4.90047 3.45616 
338 2 3.90508 4.37651 4.17266 
6 1 3.28289 4.55377 4.91813 
406 2 4.62406 3.75415 4.30005 
120 1 3.2336 3.5278 5.22169 
242 1 4.04655 4.13608 5.29424 
401 2 4.60796 4.9841 4.39015 
390 2 4.39486 5.28618 2.73948 
71 1 5.25584 3.72594 3.37384 
137 1 4.40438 3.14345 5.0914 
442 2 6.20552 3.64269 2.69533 
472 2 6.6024 4.71945 2.92199 
299 2 7.86574 3.26958 4.55039 
410 2 6.31018 4.14007 3.68998 
177 1 5.50589 3.24149 4.3592 
24 1 5.53943 4.25117 4.83613 
272 2 6.3173 3.15419 3.52258 
238 1 7.41665 3.04112 3.4988 
485 2 7.32532 3.87593 4.07242 
377 2 6.70668 4.54344 4.47916 
127 1 6.47586 3.4309 4.80227 
260 2 5.41659 4.713 3.87825 
49 1 7.18385 3.97627 3.12712 
301 2 6.96283 5.30544 5.22194 
189 1 7.21269 3.85335 5.17022 
288 2 7.87261 4.72195 3.03587 
320 2 5.44467 5.2874 4.7137 
329 2 1.87467 6.95753 2.68745 
412 2 0.185547 6.63341 2.68242 
368 2 2.5765 7.95434 3.85406 
397 2 2.57609 7.00455 3.39354 
217 1 0.403148 5.51553 3.61272 
362 2 0.836417 6.56816 3.46273 
170 1 1.51081 7.38871 3.52733 
255 2 0.850543 7.36 4.58429 
81 1 1.95892 5.6924 4.42423 
226 1 1.83398 6.39362 3.79165 
276 2 0.883517 6.26487 4.39104 
293 2 0.42689 7.34694 3.30197 
47 1 2.58411 5.99659 5.10233 
295 2 2.04739 7.35787 4.41283 
477 2 1.63161 6.67027 4.96838 
26 1 0.561075 5.99082 5.30107 
15 1 3.2521 5.52832 4.54132 
158 1 2.81418 6.96095 5.10491 
10 1 2.84727 5.75127 3.33186 
70 1 4.07953 5.77874 3.98063 
400 2 2.7858 6.5599 4.14716 
455 2 4.4548 7.91418 4.42415 
197 1 3.84036 7.30293 3.78707 
245 1 4.25974 6.34468 3.25925 
335 2 3.35847 6.74612 2.95709 
331 2 3.85914 6.58883 4.54004 
268 2 4.9439 7.00198 3.87376 
240 1 4.87314 6.1128 4.4284 
325 2 4.08966 5.6096 5.18932 
115 1 4.79195 7.0742 4.96326 
179 1 4.56095 7.89271 3.34112 
53 1 3.43687 7.77684 4.40082 
51 1 6.28778 5.74941 2.66868 
332 2 6.53 6.34015 3.51234 
214 1 7.50723 7.71877 2.74141 
298 2 7.39808 7.42434 4.30989 
208 1 5.63292 7.70458 5.13439 
440 2 7.07556 7.97388 3.60827 
39 1 6.28635 5.45491 4.2052 
291 2 7.98955 6.73321 4.70821 
174 1 5.55154 7.51744 3.06195 
393 2 5.45293 7.78473 4.1982 
461 2 5.7719 6.81971 4.62555 
175 1 7.84908 6.29538 3.84692 
246 1 7.27326 5.44205 3.73716 
359 2 7.9207 5.52203 4.66193 
69 1 7.3711 6.96671 3.25126 
497 2 5.3682 5.4227 3.07379 
229 1 5.54635 6.44037 3.01734 
294 2 6.45893 7.37263 3.86783 
376 2 6.72055 6.46598 4.41072 
128 1 5.56111 6.0375 3.88698 
284 2 7.24974 6.23062 5.05136 
110 1 7.21516 5.77326 2.95499 
450 2 6.18927 5.95046 5.02789 
271 2 7.7955 7.459 5.31106 
118 1 6.60791 7.20671 5.19078 
99 1 0.886803 2.04997 7.86481 
11 1 0.768244 0.416155 5.82567 
465 2 1.017 0.820486 7.83868 
33 1 0.0934405 2.09205 7.19913 
234 1 1.22939 2.16085 5.65481 
16 1 0.427727 0.265205 7.06373 
218 1 2.42386 1.61022 7.03086 
482 2 1.76979 0.782346 5.48293 
92 1 0.855172 1.34183 5.82147 
355 2 1.05282 1.52901 6.92952 
103 1 1.31621 0.611207 6.65025 
131 1 1.99476 0.385894 7.42219 
479 2 1.81582 1.62156 6.26701 
190 1 0.233036 1.65928 6.40171 
86 1 2.35536 0.721044 6.5753 
93 1 2.4266 2.432 5.51398 
162 1 1.85298 2.21504 7.45629 
4 1 2.3035 2.57081 6.61708 
45 1 0.00904998 1.08546 7.39114 
353 2 3.04549 0.896962 7.33286 
167 1 3.50063 1.75714 7.49709 
343 2 4.9149 1.52925 5.40404 
150 1 2.96248 1.60283 5.73749 
100 1 3.51761 1.3765 6.52945 
384 2 4.38103 1.15745 7.35946 
172 1 4.20705 0.573842 6.51904 
305 2 4.07834 1.50691 5.66674 
363 2 4.52822 2.14136 6.67416 
222 1 3.53157 0.521141 5.90528 
435 2 4.54934 2.01138 7.85044 
63 1 4.84542 1.20618 6.2949 
145 1 3.47331 2.53527 6.21641 
193 1 5.06219 0.38737 6.95093 
458 2 4.45123 2.39444 5.73952 
273 2 4.09018 0.0814055 7.48992 
487 2 4.97411 0.168771 5.86832 
426 2 6.40372 1.11685 5.37605 
7 1 6.40334 2.21138 5.41678 
489 2 7.90374 1.16535 5.38345 
437 2 5.35746 1.82704 6.99609 
153 1 5.36981 0.647889 7.97866 
122 1 6.37995 1.62014 7.96129 
142 1 7.1102 1.09736 7.37049 
308 2 7.53459 0.417204 6.61489 
499 2 7.23074 1.8252 5.84473 
270 2 7.38281 1.94338 7.8965 
181 1 6.72004 1.10874 6.41575 
370 2 6.02659 0.820876 7.13303 
280 2 5.57 2.4996 7.62088 
65 1 6.15168 2.20598 6.47525 
445 2 6.54449 0.161401 5.65052 
230 1 5.76978 1.31625 6.15087 
237 1 5.38586 2.40875 5.91361 
52 1 7.0622 2.06995 6.94045 
466 2 6.72925 0.092121 6.77911 
468 2 5.86031 0.175796 6.37885 
85 1 1.39346 5.10139 7.95248 
425 2 0.835309 2.66966 6.83925 
156 1 2.6432 2.68201 7.83178 
493 2 1.66321 3.13118 6.06432 
221 1 0.785591 3.70694 6.25971 
451 2 1.95377 4.19466 7.5845 
403 2 0.998255 3.93626 7.21542 
436 2 0.118759 2.68509 6.14934 
318 2 1.73776 4.05802 6.48237 
417 2 0.169413 4.54309 6.39774 
55 1 0.168819 3.44593 6.98165 
135 1 0.500685 4.68545 7.41063 
360 2 1.67661 3.1651 7.10535 
126 1 2.45493 4.00085 5.68405 
171 1 1.92284 5.06363 6.06369 
342 2 1.44996 3.94219 5.46212 
154 1 1.28816 5.10733 7.05245 
302 2 2.27612 5.1666 7.31733 
428 2 4.09982 4.42978 7.88097 
62 1 4.02456 4.63702 6.02808 
372 2 4.40937 3.1531 6.44699 
134 1 4.55754 3.01706 7.78217 
196 1 3.84098 2.72429 7.21858 
165 1 2.72115 3.14026 5.8396 
354 2 3.40758 3.4878 7.76851 
386 2 5.02729 4.53217 7.71316 
323 2 4.00413 3.79735 7.08503 
178 1 2.99865 4.49823 7.80261 
200 1 3.68195 4.8442 7.01753 
326 2 2.68687 3.45001 7.20174 
422 2 3.54033 3.61417 6.25282 
147 1 4.80483 5.05056 6.53345 
282 2 4.57738 5.26304 7.51404 
467 2 4.87822 3.8335 5.74468 
250 1 5.05551 3.90188 6.96792 
89 1 4.81572 4.82337 5.47102 
223 1 2.69774 4.58414 6.58706 
187 1 3.15514 5.06112 5.73901 
481 2 7.53712 5.23232 7.87479 
480 2 6.88687 2.86048 6.14443 
414 2 5.54161 3.41166 7.8059 
94 1 5.67609 5.05542 7.03474 
184 1 6.37524 2.9497 7.12109 
347 2 7.48495 4.38784 7.37597 
236 1 7.3544 4.62975 5.78764 
369 2 6.04182 3.94212 7.15542 
334 2 7.73105 5.20088 6.8966 
500 2 6.77107 3.85111 6.68536 
267 2 6.48308 3.73657 5.88291 
396 2 5.61885 3.27826 5.37834 
117 1 7.63503 3.58146 6.16884 
129 1 5.58058 3.12603 6.64857 
32 1 7.32286 3.12371 7.32169 
249 1 6.63862 4.97807 7.51282 
169 1 6.67548 3.73062 7.81442 
266 2 5.61319 4.2467 6.0971 
160 1 6.72887 5.0943 6.49232 
17 1 6.09671 4.74618 5.3798 
27 1 2.21759 7.15047 7.79075 
30 1 0.11606 7.7928 7.86638 
121 1 1.70591 7.67121 5.44193 
492 2 0.69207 5.4163 6.11882 
102 1 0.811471 7.27391 5.59366 
72 1 1.57973 5.78198 5.66734 
416 2 1.16694 7.68913 7.65133 
402 2 1.69411 6.05922 6.6358 
84 1 1.58583 6.83079 5.95579 
312 2 1.0774 7.57836 6.51076 
336 2 1.71946 6.13541 7.90957 
253 2 1.5067 6.8993 7.06301 
433 2 2.14392 7.69047 6.3383 
215 1 2.58047 6.57598 6.01836 
104 1 0.798142 6.46127 6.40152 
151 1 2.53204 6.89229 6.88511 
166 1 0.651933 5.95853 7.13433 
373 2 0.676539 7.00558 7.33518 
379 2 0.0168186 7.62214 6.19325 