LAMMPS (6 Apr 2015)
Created orthogonal box = (0 0 0) to (8 8 8)
  1 by 1 by 1 MPI processor grid
Created 250 atoms
Created 250 atoms
Neighbor list info ...
  1 neighbor list requests
  update every 20 steps, delay 0 steps, check no
  master list distance cutoff = 4.3
Setting up run ...
Memory usage per processor = 2.1412 Mbytes
Step Temp KinEng PotEng TotEng Volume Press Pxx Pyy Pzz Lx Ly Lz Enthalpy 
       0          0.1       0.1497 2.2226108e+09 2.2226108e+09          512 8.6821021e+09 1.4859595e+10 2.1264369e+09 9.0602742e+09            8            8            8 1.1113083e+10 
    1000    930.47713    1392.9243     253.5228    1646.4471          512    2041.5976    1949.4726    1949.9367    2225.3836            8            8            8     3737.043 
    2000    1011.9345    1514.8659    249.75163    1764.6176          512    2104.0187    2033.6138    2017.1397    2261.3025            8            8            8    3919.1327 
    3000    967.13231    1447.7971    273.55494     1721.352          512    2157.7892    2165.8768    2128.7318    2178.7591            8            8            8    3930.9281 
    4000    1008.0599    1509.0656    261.01678    1770.0824          512    2147.8036    2030.8024    2128.0241    2284.5844            8            8            8    3969.4333 
    5000    948.15316    1419.3853    244.54118    1663.9265          512    2019.3621    2054.3182    1893.7541    2110.0139            8            8            8    3731.7532 
    6000    898.76917    1345.4574    266.10874    1611.5662          512    2065.3674     2334.478    1902.3809    1959.2435            8            8            8    3726.5024 
    7000    957.23399    1432.9793     248.8501    1681.8294          512     2052.456     2082.159     2108.814    1966.3949            8            8            8    3783.5443 
    8000    1011.9266    1514.8541    234.65277    1749.5069          512    2043.2216    2151.2634    2051.2839    1927.1174            8            8            8    3841.7658 
    9000    1010.1525    1512.1983    221.12331    1733.3216          512    1985.5954    2068.7264    1784.8248     2103.235            8            8            8    3766.5714 
   10000    998.55343    1494.8345    235.29561    1730.1301          512    2030.3311    1985.8515     2183.343    1921.7989            8            8            8    3809.1892 
Loop time of 22.9161 on 1 procs for 10000 steps with 500 atoms

Pair  time (%) = 20.1899 (88.1034)
Neigh time (%) = 2.20355 (9.61572)
Comm  time (%) = 0.373756 (1.63097)
Outpt time (%) = 0.000168085 (0.00073348)
Other time (%) = 0.148775 (0.649217)

Nlocal:    500 ave 500 max 500 min
Histogram: 1 0 0 0 0 0 0 0 0 0
Nghost:    3994 ave 3994 max 3994 min
Histogram: 1 0 0 0 0 0 0 0 0 0
Neighs:    81038 ave 81038 max 81038 min
Histogram: 1 0 0 0 0 0 0 0 0 0

Total # of neighbors = 81038
Ave neighs/atom = 162.076
Neighbor list builds = 500
Dangerous builds = 0
Setting up run ...
Memory usage per processor = 2.1412 Mbytes
Step Temp KinEng PotEng TotEng Volume Press Pxx Pyy Pzz Lx Ly Lz Enthalpy 
   10000    998.55343    1494.8345    235.29561    1730.1301          512    2030.3311    1985.8515     2183.343    1921.7989            8            8            8    3809.1892 
   11000   0.53890509   0.80674092   -18.375438   -17.568697          512   -1.1400307  -0.33691565   -1.4342575   -1.6489189            8            8            8   -18.736088 
   12000   0.15130285   0.22650037   -19.496858   -19.270357          512   -4.8976316    -4.540216   -4.9243128    -5.228366            8            8            8   -24.285532 
   13000  0.093743835   0.14033452   -19.862438   -19.722103          512   -5.5995311   -5.5110497   -6.0333365    -5.254207            8            8            8   -25.456023 
   14000  0.071172283   0.10654491   -20.011462   -19.904917          512   -5.9161593   -6.1655778   -5.4648875   -6.1180126            8            8            8   -25.963064 
   15000  0.083945958    0.1256671   -20.143159   -20.017492          512   -6.0948343   -5.5161702   -6.7651294   -6.0032033            8            8            8   -26.258602 
   16000  0.073638981   0.11023755   -20.187209   -20.076971          512   -6.2605484    -5.830319   -6.5883291   -6.3629972            8            8            8   -26.487773 
   17000  0.087608837   0.13115043   -20.213082   -20.081932          512   -5.9849348   -5.5629112   -6.2744257   -6.1174674            8            8            8   -26.210505 
   18000   0.11315719   0.16939631   -20.230806    -20.06141          512   -5.8481263   -5.2951506   -6.3873265   -5.8619017            8            8            8   -26.049891 
   19000   0.13217541   0.19786659   -20.277692   -20.079825          512   -5.8490783   -5.3442677   -6.1665947   -6.0363724            8            8            8   -26.069281 
   20000   0.10907054    0.1632786    -20.33994   -20.176661          512   -6.1343384   -5.3103931   -6.2595932   -6.8330289            8            8            8   -26.458224 
   21000  0.089660663   0.13422201   -20.419009   -20.284787          512   -6.1798118   -5.2805064   -6.3360268   -6.9229021            8            8            8   -26.612914 
   22000   0.07693051   0.11516497     -20.4612   -20.346035          512   -6.3863732   -5.9009207      -6.5897    -6.668499            8            8            8   -26.885682 
   23000  0.075981874   0.11374487   -20.465562   -20.351817          512    -6.180217   -5.7703385   -6.2617812   -6.5085313            8            8            8   -26.680359 
   24000  0.095587319   0.14309422   -20.444678   -20.301583          512   -5.9533807   -5.4977479   -6.3271364   -6.0352578            8            8            8   -26.397845 
   25000   0.12168573   0.18216354   -20.408444    -20.22628          512    -5.932936   -5.3300588   -6.5824032    -5.886346            8            8            8   -26.301607 
   26000   0.13025669   0.19499427   -20.414184   -20.219189          512   -5.9587075   -5.8699612   -5.7830246   -6.2231368            8            8            8   -26.320906 
   27000   0.10289249   0.15403005    -20.46504    -20.31101          512   -6.2080414   -5.9768272   -6.4383393   -6.2089575            8            8            8   -26.668045 
   28000  0.082189973   0.12303839   -20.512329   -20.389291          512   -6.3797571   -6.0837382   -6.6508905   -6.4046427            8            8            8   -26.922162 
   29000  0.081457088   0.12194126   -20.536463   -20.414522          512   -6.4904661   -6.3601614   -6.8204265   -6.2908105            8            8            8   -27.060759 
   30000  0.098120655   0.14688662   -20.536593   -20.389707          512   -6.2919585   -6.1405117    -6.393196   -6.3421677            8            8            8   -26.832672 
Loop time of 41.0027 on 1 procs for 20000 steps with 500 atoms

Pair  time (%) = 36.2111 (88.3138)
Neigh time (%) = 3.74294 (9.12852)
Comm  time (%) = 0.668444 (1.63024)
Outpt time (%) = 0.00032115 (0.00078324)
Other time (%) = 0.379972 (0.9267)

Nlocal:    500 ave 500 max 500 min
Histogram: 1 0 0 0 0 0 0 0 0 0
Nghost:    3946 ave 3946 max 3946 min
Histogram: 1 0 0 0 0 0 0 0 0 0
Neighs:    80801 ave 80801 max 80801 min
Histogram: 1 0 0 0 0 0 0 0 0 0

Total # of neighbors = 80801
Ave neighs/atom = 161.602
Neighbor list builds = 1000
Dangerous builds = 0
Setting up run ...
Memory usage per processor = 2.1412 Mbytes
Step Temp KinEng PotEng TotEng Volume Press Pxx Pyy Pzz Lx Ly Lz Enthalpy 
   30000  0.098120655   0.14688662   -20.536593   -20.389707          512   -6.2919585   -6.1405117    -6.393196   -6.3421677            8            8            8   -26.832672 
   31000   0.11424449     0.171024   -20.533549   -20.362525          512   -6.3262932   -5.9770832   -6.5073321   -6.4944642            8            8            8   -26.840649 
   32000   0.13485802   0.20188246   -20.497621   -20.295738          512   -5.9358214   -5.6915454   -6.1133749   -6.0025438            8            8            8   -26.374019 
   33000   0.17692252   0.26485301   -20.456688   -20.191835          512   -5.8548404   -5.4848767   -5.9655878   -6.1140567            8            8            8   -26.187192 
   34000   0.22080661   0.33054749   -20.375719   -20.045172          512   -5.6559782   -5.4244272   -5.5379017   -6.0056057            8            8            8   -25.836893 
   35000   0.30807944   0.46119493   -20.301601   -19.840406          512   -4.8720811   -4.5593789   -4.6840236   -5.3728407            8            8            8   -24.829417 
   36000   0.38947134   0.58303859   -20.137526   -19.554488          512   -4.4342602   -3.9495353   -4.5578209   -4.7954243            8            8            8    -24.09517 
   37000   0.51813807   0.77565269     -19.9429   -19.167247          512    -2.777304    -2.339214    -3.084521    -2.908177            8            8            8   -22.011206 
   38000   0.71256097    1.0667038   -19.719443    -18.65274          512    -2.086398   -1.6641765    -2.217011   -2.3780065            8            8            8   -20.789211 
   39000   0.97755263    1.4633963   -19.443347   -17.979951          512 -0.0050637017   0.53326575  -0.76919733   0.22074048            8            8            8   -17.985136 
   40000    1.2071841    1.8071546   -18.934698   -17.127543          512    2.2688353    2.4296016    2.7320801    1.6448241            8            8            8   -14.804256 
   41000    1.6110256    2.4117053   -18.499424   -16.087719          512    4.9503872     5.775893    3.4873825    5.5878861            8            8            8   -11.018522 
   42000    1.9858066    2.9727525   -17.870421   -14.897668          512    8.7734906    10.596077    6.6462195    9.0781754            8            8            8   -5.9136137 
   43000    2.3894542     3.577013   -17.207306   -13.630293          512     11.11342    11.666776    11.414161    10.259322            8            8            8   -2.2501505 
   44000      2.90906    4.3548628   -16.741961   -12.387099          512    14.202097    15.112138    14.672148    12.822004            8            8            8    2.1558486 
   45000    3.1059673    4.6496331   -16.012211   -11.362578          512    17.609766     19.03502    17.091711    16.702567            8            8            8    6.6698227 
   46000     3.281199    4.9119549   -15.593738   -10.681783          512    18.619846    18.495199    20.225931     17.13841            8            8            8    8.3849398 
   47000    3.4848094    5.2167596   -15.514977   -10.298217          512     19.00065    18.633314    19.611392    18.757245            8            8            8    9.1584485 
   48000    3.4387334    5.1477839    -15.10395   -9.9561663          512    20.144312    20.146852    21.084597    19.201486            8            8            8    10.671609 
   49000    3.5374852    5.2956154   -14.639202   -9.3435864          512    23.352519     23.35649    23.498926    23.202142            8            8            8    14.569393 
   50000    3.9778637     5.954862   -14.494087   -8.5392253          512    24.861411    27.274514    23.453987    23.855732            8            8            8     16.91886 
Loop time of 41.1389 on 1 procs for 20000 steps with 500 atoms

Pair  time (%) = 36.3147 (88.2736)
Neigh time (%) = 3.77696 (9.18101)
Comm  time (%) = 0.667396 (1.6223)
Outpt time (%) = 0.000322342 (0.000783546)
Other time (%) = 0.379438 (0.922336)

Nlocal:    500 ave 500 max 500 min
Histogram: 1 0 0 0 0 0 0 0 0 0
Nghost:    3982 ave 3982 max 3982 min
Histogram: 1 0 0 0 0 0 0 0 0 0
Neighs:    81036 ave 81036 max 81036 min
Histogram: 1 0 0 0 0 0 0 0 0 0

Total # of neighbors = 81036
Ave neighs/atom = 162.072
Neighbor list builds = 1000
Dangerous builds = 0
Neighbor list info ...
  2 neighbor list requests
  update every 20 steps, delay 0 steps, check no
  master list distance cutoff = 4.3
Setting up run ...
Memory usage per processor = 3.41027 Mbytes
Step Temp KinEng PotEng TotEng Volume Press Pxx Pyy Pzz Lx Ly Lz Enthalpy 
       0    3.9778637     5.954862   -14.494087   -8.5392253          512    24.861411    27.274514    23.453987    23.855732            8            8            8     16.91886 
    1000    3.9653628    5.9361481     -14.5706    -8.634452          512    22.155482     21.86655    23.815927    20.783969            8            8            8    14.052761 
    2000    3.9016707    5.8408011   -14.760238   -8.9194369          512    22.915901    23.704244    22.565501    22.477959            8            8            8    14.546446 
    3000    3.8231364    5.7232351   -14.928791   -9.2055556          512    21.053837    21.243521    19.565605    22.352384            8            8            8    12.353573 
    4000    3.8077043    5.7001333   -14.473756   -8.7736223          512    22.509506    21.689607    22.779719    23.059191            8            8            8    14.276112 
    5000    3.9540186    5.9191659     -14.3515    -8.432334          512    23.635235    24.411931    24.222864     22.27091            8            8            8    15.770146 
    6000    3.8875864    5.8197169   -14.147693   -8.3279763          512    24.794802    25.540769    22.749384    26.094252            8            8            8      17.0619 
    7000    4.1081403    6.1498861    -14.49835   -8.3484642          512    23.880677    21.248208    23.670152    26.723669            8            8            8    16.105349 
    8000    3.6804107    5.5095749   -14.333436    -8.823861          512    23.465708    22.745251    25.256358    22.395516            8            8            8    15.205024 
    9000    3.9310315    5.8847542    -14.88887   -9.0041156          512    21.354984    20.547684    22.062174    21.455093            8            8            8    12.863388 
   10000    3.8824904    5.8120882   -14.568031   -8.7559427          512    23.064488    22.300733    23.789103    23.103629            8            8            8    14.862093 
   11000    4.0682452    6.0901631   -14.653725   -8.5635615          512    22.421162    25.403937    19.900851    21.958698            8            8            8    14.395708 
   12000    4.1331196      6.18728    -14.63267   -8.4453901          512    22.782212    23.427781    24.990797    19.928058            8            8            8    14.883595 
   13000    4.2195399    6.3166513   -14.734334   -8.4176829          512    22.928979    21.626001    22.809227    24.351708            8            8            8    15.061591 
   14000    3.9204346    5.8688906   -14.479638   -8.6107474          512    23.028907    23.222091    19.671118    26.193511            8            8            8    14.970853 
   15000     3.856126    5.7726206   -14.831779   -9.0591588          512    21.736054     22.07145    21.369155    21.767558            8            8            8    13.198561 
   16000    3.8439395    5.7543774   -14.763781   -9.0094039          512    21.637949     20.81536    24.210599    19.887888            8            8            8    13.147856 
   17000    4.0307219    6.0339907    -14.50274   -8.4687497          512    24.235025    25.841238    22.844862    24.018974            8            8            8    16.347915 
   18000    4.1719192     6.245363     -14.6236   -8.3782372          512    22.993361    22.381802    23.877302     22.72098            8            8            8    15.166965 
   19000    3.9651963    5.9358988   -14.401622   -8.4657228          512     24.21281    24.319938     24.65179    23.666702            8            8            8    16.328194 
   20000    3.8926279     5.827264   -14.501293   -8.6740294          512    23.438437    25.040657    22.329597    22.945057            8            8            8     15.32693 
   21000    3.6991874    5.5376835   -14.622168   -9.0844842          512    23.342317    21.430081    24.004612    24.592257            8            8            8    14.818048 
   22000    3.8398549    5.7482628   -14.866525   -9.1182624          512    22.100475    23.263053    20.168926    22.869446            8            8            8    13.512624 
   23000    4.2357292    6.3408867   -14.785342   -8.4444551          512      21.5665    19.729879    23.130053    21.839569            8            8            8    13.639641 
   24000    4.0486555    6.0608372   -14.407891   -8.3470536          512    24.336521    23.720788    25.199225    24.089549            8            8            8    16.573544 
   25000    4.0829843    6.1122276   -14.641413   -8.5291853          512    22.683509    21.047163    23.409361    23.594003            8            8            8    14.698728 
   26000    3.9646397    5.9350657   -14.742466   -8.8074006          512    22.852548    20.648191     24.88604    23.023415            8            8            8    14.593609 
   27000    3.6517198    5.4666245   -14.470401   -9.0037763          512    22.752319    21.602129    24.215783    22.439046            8            8            8    14.294599 
   28000    3.9303813    5.8837807   -14.911904   -9.0281235          512    22.583786    23.362595    22.587443    21.801322            8            8            8    14.097674 
   29000    4.0514955    6.0650888    -14.66807   -8.6029808          512    22.937687     21.70248    23.864125    23.246456            8            8            8    14.885211 
   30000    4.2285716    6.3301717   -14.626896   -8.2967246          512    23.085596    24.175371    21.229249     23.85217            8            8            8    15.342926 
   31000    4.1707372    6.2435935   -14.637416   -8.3938226          512    22.739027    24.278839    22.171327    21.766916            8            8            8    14.890941 
   32000    3.9411982    5.8999737   -14.698242    -8.798268          512     22.06004    22.306948    21.936604    21.936568            8            8            8    13.791213 
   33000    3.7092155    5.5526956   -14.628591   -9.0758955          512    21.703086    22.396131    19.685527      23.0276            8            8            8    13.148065 
   34000     3.872925    5.7977687     -14.3729   -8.5751315          512    23.210619      25.7444    22.645451    21.242006            8            8            8    15.192542 
   35000    4.1001652    6.1379473   -14.304775   -8.1668276          512    24.910537    23.410928    26.832078    24.488605            8            8            8    17.341562 
   36000     4.093896    6.1285624   -14.533224    -8.404662          512    24.194367    24.959886    24.679332    22.943883            8            8            8     16.37037 
   37000    3.8047655     5.695734   -14.519857   -8.8241235          512    24.171606    23.268295    23.099428    26.147095            8            8            8    15.927601 
   38000    3.7894072    5.6727426   -14.590118   -8.9173754          512    22.562096    22.809633    22.364053    22.512601            8            8            8    14.186211 
   39000    4.0837984    6.1134462   -14.715891   -8.6024444          512    23.479892    23.959786    23.401623    23.078267            8            8            8    15.440965 
   40000    4.1954508    6.2805898   -14.514201   -8.2336108          512    23.760773    20.766997    23.713374    26.801948            8            8            8    16.097421 
   41000    4.2768031    6.4023742    -14.36992   -7.9675462          512    24.282811    24.638551    23.644247    24.565635            8            8            8    16.898052 
   42000    4.2806026    6.4080621   -14.421372   -8.0133102          512    24.360931    24.591619    22.922269    25.568906            8            8            8    16.932283 
   43000    3.9749584    5.9505127   -14.526156   -8.5756434          512    23.324317     23.41499    23.220942     23.33702            8            8            8    15.308457 
   44000    4.0299288    6.0328034    -14.85358   -8.8207769          512    21.624037    22.315007    19.798414    22.758691            8            8            8    13.322237 
   45000    3.7387745    5.5969454     -14.3889   -8.7919542          512    24.418682    23.171287    25.213829     24.87093            8            8            8    16.212776 
   46000    4.2638994    6.3830575   -14.720174    -8.337117          512    23.125438    23.319679    24.300804     21.75583            8            8            8    15.343331 
   47000    4.1603347     6.228021   -14.308302   -8.0802813          512    23.405204    23.265882     24.84509    22.104641            8            8            8    15.886648 
   48000    4.1054093    6.1457977   -14.356679   -8.2108812          512    23.450234    23.121334    22.520375    24.708994            8            8            8    15.802159 
   49000    3.8942012    5.8296191   -14.260453   -8.4308341          512    24.385213    24.061085    24.831768    24.262787            8            8            8    16.539624 
   50000     4.127521    6.1788989   -14.707439   -8.5285402          512    22.518752    22.402047     23.90494    21.249269            8            8            8    14.530662 
   51000    4.0568076     6.073041   -14.667392   -8.5943512          512    22.715162    20.983892    22.116194    25.045401            8            8            8    14.665975 
   52000    4.0459079    6.0567241   -14.843008   -8.7862841          512    22.040388     23.24583    22.579525    20.295808            8            8            8    13.783073 
   53000    3.7486887     5.611787   -14.812352   -9.2005653          512    21.771262    22.134631     21.25236    21.926795            8            8            8    13.093207 
   54000      3.93758    5.8945572   -14.946349   -9.0517918          512    20.819015     20.81112    20.345833    21.300091            8            8            8    12.266879 
   55000    3.9621684    5.9313661   -14.523862   -8.5924964          512    23.575578    21.979194    24.904599     23.84294            8            8            8    15.548895 
   56000    4.0389167    6.0462583   -14.429349   -8.3830907          512    23.169909     21.83572    22.803464    24.870543            8            8            8    15.342896 
   57000    3.9628674    5.9324125   -14.304465   -8.3720522          512     24.33162    22.930994    25.072369    24.991496            8            8            8    16.543526 
   58000    3.8433391    5.7534786   -14.425099   -8.6716208          512    23.449046    24.289499    24.004668     22.05297            8            8            8    15.340202 
   59000     3.735838    5.5925495   -14.712987   -9.1204374          512    22.707446     22.63172    22.123289    23.367327            8            8            8    14.131987 
   60000    3.7702171    5.6440149   -14.727129   -9.0831144          512    21.705351    21.420665    22.916722    20.778665            8            8            8    13.143165 
   61000    3.9510073     5.914658   -14.441775   -8.5271165          512     22.97374    20.795754    24.518016    23.607449            8            8            8    14.997993 
   62000    4.1779825    6.2544398   -14.672657   -8.4182169          512    22.310174    24.517233    22.040679    20.372609            8            8            8    14.427401 
   63000    4.1430441     6.202137   -14.675876   -8.4737388          512    22.964308    23.925515     23.11093     21.85648            8            8            8    15.041713 
   64000     3.878094    5.8055067   -14.404944   -8.5994378          512    23.971848    23.243934     23.32331      25.3483            8            8            8    15.947735 
   65000    4.0313357    6.0349096    -14.72976   -8.6948505          512    22.554604    21.817752    24.370566    21.475494            8            8            8    14.401064 
   66000    3.7854942    5.6668848   -14.402536   -8.7356508          512    23.458167    23.345838    26.958942    20.069721            8            8            8    15.285512 
   67000     4.088232    6.1200834   -14.561758   -8.4416742          512    23.018481    21.651092    23.350564    24.053789            8            8            8    15.129251 
   68000     4.193801      6.27812   -14.407716   -8.1295957          512    23.745789    23.202427    23.734597    24.300343            8            8            8    16.186092 
   69000    4.0403722    6.0484372   -14.411167     -8.36273          512    24.225857    25.064601    23.584438    24.028531            8            8            8    16.444547 
   70000    3.8458445    5.7572292    -14.68488   -8.9276504          512     23.30931     22.00848    23.338135    24.581315            8            8            8    14.941083 
   71000    3.9555128    5.9214027   -14.810562   -8.8891596          512     21.48899    21.730407    21.005851    21.730713            8            8            8    13.115567 
   72000    3.9609142    5.9294885   -14.588579   -8.6590909          512    23.614248    24.170169    24.348163    22.324414            8            8            8      15.5219 
   73000    4.1430013     6.202073    -14.48981   -8.2877366          512    23.253737     22.43168    24.870276    22.459257            8            8            8    15.524091 
   74000    4.0974624    6.1339012   -14.286385   -8.1524841          512    24.512614    22.448118    26.330739    24.758986            8            8            8    16.948433 
   75000    3.8583071    5.7758858   -14.353072    -8.577186          512    22.965993    21.901239    25.019928    21.976812            8            8            8    14.939991 
   76000    3.9947728    5.9801749   -15.042222   -9.0620472          512    21.019781    23.545395    19.408461    20.105488            8            8            8    12.462209 
   77000    3.9747224    5.9501594   -14.763127   -8.8129674          512    22.343271    23.374031    21.541996    22.113786            8            8            8    14.066542 
   78000    4.0690279    6.0913348   -14.490231   -8.3988963          512    22.877691    20.036189    23.421334    25.175549            8            8            8    15.027859 
   79000    4.0351128    6.0405639   -14.323608   -8.2830443          512    24.259664    22.661683    22.637355    27.479955            8            8            8    16.558852 
   80000    3.9271266    5.8789085   -14.326454   -8.4475458          512    23.059839    21.975513    23.484209    23.719796            8            8            8    15.165729 
   81000    3.9188851     5.866571   -14.698283   -8.8317124          512    21.864283    21.926731    21.966927    21.699193            8            8            8    13.557314 
   82000    3.8781545    5.8055974   -14.993516   -9.1879189          512    20.948124    21.341086    21.184838    20.318448            8            8            8     12.26296 
   83000    3.8455229    5.7567478   -14.631203   -8.8744548          512     22.96215    22.542057    22.175359    24.169033            8            8            8    14.638787 
   84000    4.2329347    6.3367033   -14.755356   -8.4186527          512    22.079834    22.974555    21.024878     22.24007            8            8            8    14.191098 
   85000    4.1638971     6.233354   -14.690056   -8.4567018          512    22.668862    22.447313    22.288536    23.270735            8            8            8    14.756212 
   86000    4.0415681    6.0502274   -14.744756   -8.6945287          512    22.032561     22.64542     20.90725    22.545012            8            8            8    13.866814 
   87000    3.7680081    5.6407082   -14.587725   -8.9470166          512    22.677357    20.555874    25.361378    22.114819            8            8            8    14.274597 
   88000    3.8801362    5.8085639   -14.742904   -8.9343401          512    23.093011    24.691683    22.201603    22.385747            8            8            8    14.712903 
   89000    3.9975009    5.9842588   -14.422785   -8.4385264          512    22.789628    25.046138    20.591548    22.731197            8            8            8    14.898052 
   90000    4.1697126    6.2420598   -14.416057   -8.1739971          512    24.206187    24.991687    25.584365     22.04251            8            8            8    16.613139 
   91000    4.1037365    6.1432935    -14.46866   -8.3253663          512    22.689828    22.212796    22.751862    23.104826            8            8            8    14.909017 
   92000    3.9644349     5.934759   -14.736376   -8.8016171          512    22.521608     23.39668    22.575844    21.592299            8            8            8    14.260509 
   93000    3.9259504    5.8771477   -14.757498   -8.8803499          512    21.984115    21.602062    21.348181    23.002102            8            8            8    13.631384 
   94000    3.8789572     5.806799   -14.514701   -8.7079025          512     24.06579     23.37509     27.16552    21.656761            8            8            8    15.935466 
   95000    4.0865342    6.1175416   -14.581426   -8.4638846          512    23.595827    24.972811    24.495099    21.319572            8            8            8    15.698242 
   96000    4.0786226    6.1056981   -14.447918   -8.3422195          512    24.363954    22.412348    26.759167    23.920346            8            8            8    16.606469 
   97000    3.9243727    5.8747859   -14.385678   -8.5108925          512    23.265773    24.047731    21.792787    23.956802            8            8            8     15.31326 
   98000    3.7626962    5.6327562   -14.614398   -8.9816423          512    20.892964    19.447437    22.398476    20.832981            8            8            8    12.412753 
   99000    3.9433294    5.9031641   -14.740392   -8.8372278          512    21.763235    23.509503    20.185604    21.594598            8            8            8    13.448325 
  100000    4.0816649    6.1102523   -14.515698   -8.4054455          512    23.239057    26.366322     21.95471    21.396139            8            8            8    15.391349 
Loop time of 209.254 on 1 procs for 100000 steps with 500 atoms

Pair  time (%) = 184.246 (88.0489)
Neigh time (%) = 19.4714 (9.30517)
Comm  time (%) = 3.39024 (1.62016)
Outpt time (%) = 0.0044229 (0.00211365)
Other time (%) = 2.14196 (1.02362)

Nlocal:    500 ave 500 max 500 min
Histogram: 1 0 0 0 0 0 0 0 0 0
Nghost:    3968 ave 3968 max 3968 min
Histogram: 1 0 0 0 0 0 0 0 0 0
Neighs:    81191 ave 81191 max 81191 min
Histogram: 1 0 0 0 0 0 0 0 0 0

Total # of neighbors = 81191
Ave neighs/atom = 162.382
Neighbor list builds = 5000
Dangerous builds = 0
