ITEM: TIMESTEP
0
ITEM: NUMBER OF ATOMS
290
ITEM: BOX BOUNDS pp pp pp
-1.6070000000000001e-01 1.2263700000000000e+01
8.8669999999999999e-02 1.2513070000000001e+01
-4.1049920000000002e+00 1.6319407999999999e+01
ITEM: ATOMS id type xs ys zs
26 2 0.0745053 0.496446 0.236711
58 1 0.433705 0.315363 0.313717
60 2 0.438724 0.277312 0.273517
82 1 0.0530522 0.302843 0.320684
103 1 0.157056 0.0216142 0.252598
105 2 0.17019 0.073577 0.219046
142 1 0.189757 0.410752 0.225062
143 2 0.205936 0.413732 0.270044
144 2 0.249908 0.451221 0.208956
235 6 0.175518 0.155447 0.00318208
236 6 0.0129342 0.155447 0.102083
238 6 0.338101 0.155447 0.102083
242 6 0.0129342 0.31803 0.00318208
243 6 0.175518 0.480613 0.00318208
244 6 0.175518 0.31803 0.102083
245 6 0.0129342 0.480613 0.102083
246 6 0.338101 0.31803 0.00318208
249 6 0.338101 0.480613 0.102083
283 3 0.351938 0.0141102 0.287377
67 1 0.719772 0.272313 0.204746
68 2 0.673093 0.297407 0.237557
69 2 0.680144 0.247561 0.168401
91 1 0.621089 0.0046721 0.262718
169 1 0.865378 0.0430203 0.292339
170 2 0.870279 0.109736 0.317847
171 2 0.800371 0.0490771 0.267737
172 1 0.651855 0.472404 0.268771
173 2 0.637624 0.438478 0.308327
174 2 0.5815 0.49584 0.255688
237 6 0.500684 0.155447 0.00318208
239 6 0.825851 0.155447 0.00318208
240 6 0.663267 0.155447 0.102083
241 6 0.988434 0.155447 0.102083
247 6 0.500684 0.480613 0.00318208
248 6 0.500684 0.31803 0.102083
250 6 0.663267 0.31803 0.00318208
251 6 0.825851 0.480613 0.00318208
252 6 0.825851 0.31803 0.102083
253 6 0.663267 0.480613 0.102083
254 6 0.988434 0.31803 0.00318208
255 6 0.988434 0.480613 0.102083
19 1 0.46832 0.578703 0.234075
20 2 0.433089 0.526965 0.202064
21 2 0.411875 0.621903 0.255876
25 1 0.0158099 0.53974 0.254741
27 2 0.0450481 0.577578 0.291536
28 1 0.313857 0.94177 0.321065
30 2 0.259555 0.969691 0.288051
104 2 0.0980667 0.975438 0.237148
145 1 0.278009 0.726391 0.257182
146 2 0.293636 0.795912 0.271113
147 2 0.23413 0.705085 0.294371
256 6 0.0129342 0.643196 0.00318208
257 6 0.175518 0.80578 0.00318208
258 6 0.175518 0.643196 0.102083
259 6 0.0129342 0.80578 0.102083
260 6 0.338101 0.643196 0.00318208
263 6 0.338101 0.80578 0.102083
270 6 0.0129342 0.968363 0.00318208
271 6 0.175518 0.968363 0.102083
272 6 0.338101 0.968363 0.00318208
282 3 0.135657 0.985069 0.233571
289 4 0.00849661 0.802524 0.208903
4 1 0.741973 0.7823 0.223183
5 2 0.675058 0.782263 0.197567
6 2 0.801987 0.770611 0.190798
92 2 0.652794 0.939154 0.252077
93 2 0.587467 0.98904 0.304586
106 1 0.84058 0.521423 0.3269
107 2 0.790712 0.50174 0.296591
108 2 0.900712 0.514905 0.297941
118 1 0.978848 0.906533 0.21022
119 2 0.966614 0.944724 0.166854
120 2 0.943361 0.956113 0.237452
125 2 0.752782 0.743782 0.311925
261 6 0.500684 0.80578 0.00318208
262 6 0.500684 0.643196 0.102083
264 6 0.663267 0.643196 0.00318208
265 6 0.825851 0.80578 0.00318208
266 6 0.825851 0.643196 0.102083
267 6 0.663267 0.80578 0.102083
268 6 0.988434 0.643196 0.00318208
269 6 0.988434 0.80578 0.102083
273 6 0.500684 0.968363 0.102083
274 6 0.663267 0.968363 0.00318208
275 6 0.825851 0.968363 0.102083
276 6 0.988434 0.968363 0.00318208
280 3 0.968941 0.998287 0.319936
7 1 0.353695 0.418109 0.478743
8 2 0.303487 0.389484 0.447196
9 2 0.375636 0.486663 0.46554
14 2 0.493791 0.00124416 0.510836
37 1 0.136857 0.391956 0.552989
38 2 0.164161 0.34345 0.587699
39 2 0.0619052 0.384938 0.560053
59 2 0.49846 0.321669 0.339046
62 2 0.480274 0.445003 0.610464
63 2 0.374354 0.477903 0.581819
64 1 0.0496543 0.122612 0.595452
65 2 0.0108496 0.124214 0.636661
66 2 0.0668407 0.0432119 0.589292
73 1 0.122749 0.120873 0.380342
74 2 0.137473 0.091375 0.33857
75 2 0.0994414 0.06317 0.405396
83 2 0.0655954 0.23743 0.341518
84 2 0.100328 0.353827 0.336674
136 1 0.24062 0.422503 0.355463
137 2 0.26367 0.484768 0.375586
138 2 0.306949 0.387357 0.338179
175 1 0.401025 0.242853 0.569237
176 2 0.437923 0.180761 0.546763
177 2 0.372874 0.294194 0.537613
187 1 0.219491 0.234633 0.642677
188 2 0.288558 0.21706 0.623431
189 2 0.165293 0.187054 0.626964
277 3 0.376881 0.245875 0.450255
284 4 0.0150743 0.354341 0.447686
288 4 0.102534 0.285265 0.472837
11 2 0.512209 0.0382703 0.41158
13 1 0.518008 0.0776617 0.507176
15 2 0.590142 0.0782484 0.527486
35 2 0.91903 0.403604 0.653671
43 1 0.861362 0.215082 0.380762
44 2 0.928866 0.243235 0.373706
45 2 0.863116 0.190592 0.423551
55 1 0.880888 0.145934 0.502369
56 2 0.826825 0.113448 0.530008
57 2 0.941357 0.131354 0.528709
76 1 0.712347 0.0530063 0.56227
77 2 0.684933 0.0670383 0.605106
97 1 0.655397 0.418846 0.494935
98 2 0.730033 0.428397 0.491155
99 2 0.628857 0.492463 0.496911
121 1 0.625708 0.385552 0.640966
122 2 0.645403 0.411914 0.598876
129 2 0.512861 0.0608455 0.651128
133 1 0.877161 0.485922 0.465503
135 2 0.855888 0.474901 0.421665
160 1 0.64723 0.331866 0.369137
161 2 0.637454 0.342681 0.415378
162 2 0.718658 0.30715 0.365187
181 1 0.922475 0.368299 0.573976
182 2 0.925646 0.295035 0.562301
183 2 0.902257 0.403002 0.533086
281 3 0.518431 0.268544 0.455323
290 4 0.814132 0.120269 0.414701
12 2 0.440751 0.975867 0.361311
16 1 0.126732 0.685745 0.35018
17 2 0.122531 0.761638 0.363032
18 2 0.165035 0.650298 0.382908
29 2 0.275071 0.946696 0.362031
31 1 0.0719322 0.713717 0.556945
32 2 0.0711531 0.673614 0.598473
33 2 0.103823 0.663639 0.529202
46 1 0.152613 0.570703 0.46494
47 2 0.166864 0.519636 0.497441
48 2 0.0852618 0.542175 0.450109
61 1 0.425469 0.500178 0.611424
70 1 0.147552 0.920506 0.558052
71 2 0.215515 0.939162 0.575403
72 2 0.132664 0.848333 0.569726
79 1 0.340759 0.697536 0.537415
80 2 0.359549 0.771784 0.542735
81 2 0.319946 0.679853 0.581256
85 1 0.144302 0.886613 0.428163
86 2 0.153299 0.896199 0.47382
87 2 0.0706223 0.862129 0.422976
96 2 0.493514 0.630379 0.530081
100 1 0.464957 0.873026 0.534471
102 2 0.489371 0.89306 0.575901
178 1 0.374875 0.640653 0.410051
179 2 0.330057 0.680081 0.439435
180 2 0.435944 0.688856 0.400846
10 1 0.512834 0.979245 0.380551
49 1 0.566443 0.773736 0.413324
50 2 0.633199 0.7535 0.394974
51 2 0.562711 0.851158 0.409181
52 1 0.731187 0.809844 0.563345
53 2 0.785833 0.76215 0.545466
54 2 0.686566 0.762799 0.589607
78 2 0.740231 0.980404 0.559468
94 1 0.566568 0.614346 0.521261
95 2 0.587269 0.667046 0.491852
101 2 0.525112 0.836308 0.51838
115 1 0.875213 0.693382 0.5041
116 2 0.883785 0.737341 0.46498
117 2 0.940472 0.701143 0.527502
124 1 0.769483 0.725634 0.357325
126 2 0.797409 0.652418 0.349736
127 1 0.504774 0.982303 0.654182
134 2 0.883383 0.558995 0.478534
148 1 0.905436 0.878331 0.39926
149 2 0.888494 0.935967 0.370043
150 2 0.855124 0.831278 0.380906
163 1 0.620298 0.690117 0.656702
164 2 0.578648 0.653969 0.623143
22 1 0.378384 0.445544 0.756707
23 2 0.411868 0.378881 0.772673
24 2 0.395249 0.438488 0.710787
40 1 0.431039 0.00586185 0.782515
109 1 0.197302 0.194764 0.777956
110 2 0.198623 0.206799 0.73113
111 2 0.180473 0.26058 0.798466
154 1 0.426328 0.221426 0.790833
155 2 0.349573 0.210956 0.787846
156 2 0.437708 0.14348 0.795626
193 5 0.0129342 0.155447 0.893294
194 5 0.338101 0.155447 0.893294
197 5 0.175518 0.31803 0.893294
198 5 0.0129342 0.480613 0.893294
200 5 0.338101 0.480613 0.893294
214 5 0.175518 0.155447 0.992195
217 5 0.0129342 0.31803 0.992195
218 5 0.175518 0.480613 0.992195
219 5 0.338101 0.31803 0.992195
285 4 0.106696 0.243161 0.686635
286 4 0.0374249 5.37126e-05 0.744996
3 2 0.796306 0.483437 0.751924
34 1 0.916769 0.429077 0.70119
36 2 0.936295 0.365197 0.723678
88 1 0.938645 0.0908157 0.715781
89 2 0.864661 0.0686807 0.718782
90 2 0.947112 0.152383 0.746342
112 1 0.594623 0.197801 0.710003
113 2 0.52702 0.211137 0.732746
114 2 0.612729 0.261639 0.683738
123 2 0.669153 0.429994 0.670032
130 1 0.735495 0.00367631 0.732305
132 2 0.694824 0.052313 0.760027
184 1 0.93941 0.282324 0.796243
185 2 0.98915 0.304873 0.833146
186 2 0.86145 0.281423 0.804791
195 5 0.663267 0.155447 0.893294
196 5 0.988434 0.155447 0.893294
199 5 0.500684 0.31803 0.893294
201 5 0.825851 0.31803 0.893294
202 5 0.663267 0.480613 0.893294
203 5 0.988434 0.480613 0.893294
215 5 0.500684 0.155447 0.992195
216 5 0.825851 0.155447 0.992195
220 5 0.500684 0.480613 0.992195
221 5 0.663267 0.31803 0.992195
222 5 0.825851 0.480613 0.992195
223 5 0.988434 0.31803 0.992195
279 3 0.663672 0.333489 0.768431
41 2 0.372061 0.958898 0.778226
42 2 0.479837 0.978472 0.81525
128 2 0.469634 0.961159 0.6927
151 1 0.278365 0.846812 0.752879
152 2 0.229894 0.812323 0.781859
153 2 0.316052 0.788823 0.730449
166 1 0.0706865 0.6 0.672342
167 2 0.0312917 0.653692 0.695761
168 2 0.0344187 0.53538 0.678359
190 1 0.283125 0.647445 0.668296
191 2 0.210895 0.620749 0.677698
192 2 0.324155 0.587437 0.678538
204 5 0.175518 0.643196 0.893294
205 5 0.0129342 0.80578 0.893294
207 5 0.338101 0.80578 0.893294
211 5 0.175518 0.968363 0.893294
224 5 0.0129342 0.643196 0.992195
225 5 0.175518 0.80578 0.992195
226 5 0.338101 0.643196 0.992195
231 5 0.0129342 0.968363 0.992195
232 5 0.338101 0.968363 0.992195
278 3 0.0860113 0.591354 0.735013
287 4 0.489249 0.807099 0.753524
1 1 0.72646 0.51627 0.745505
2 2 0.698728 0.516888 0.789041
131 2 0.68955 0.951855 0.714023
139 1 0.94844 0.70297 0.761285
140 2 0.964208 0.639072 0.785722
141 2 0.966453 0.768687 0.784121
157 1 0.549478 0.777633 0.781315
158 2 0.521236 0.709044 0.798241
159 2 0.566754 0.764621 0.736002
165 2 0.661011 0.630951 0.674274
206 5 0.500684 0.643196 0.893294
208 5 0.825851 0.643196 0.893294
209 5 0.663267 0.80578 0.893294
210 5 0.988434 0.80578 0.893294
212 5 0.500684 0.968363 0.893294
213 5 0.825851 0.968363 0.893294
227 5 0.500684 0.80578 0.992195
228 5 0.663267 0.643196 0.992195
229 5 0.825851 0.80578 0.992195
230 5 0.988434 0.643196 0.992195
233 5 0.663267 0.968363 0.992195
234 5 0.988434 0.968363 0.992195
ITEM: TIMESTEP
100
ITEM: NUMBER OF ATOMS
290
ITEM: BOX BOUNDS pp pp pp
-1.6070000000000001e-01 1.2263700000000000e+01
8.8669999999999999e-02 1.2513070000000001e+01
-4.1049920000000002e+00 1.6319407999999999e+01
ITEM: ATOMS id type xs ys zs
26 2 0.894355 0.188414 0.376134
58 1 0.484222 0.479615 0.352032
60 2 0.41001 0.524385 0.319019
82 1 0.234534 0.175344 0.331869
103 1 0.414148 0.121398 0.374207
105 2 0.455561 0.157147 0.401293
142 1 0.316419 0.275443 0.213968
143 2 0.294111 0.234698 0.17387
144 2 0.27755 0.339756 0.207688
235 6 0.175552 0.155433 0.00320212
236 6 0.0129058 0.15535 0.102043
238 6 0.33823 0.155504 0.102088
242 6 0.0128527 0.318102 0.00313566
243 6 0.175473 0.480713 0.00316729
244 6 0.175522 0.318113 0.102037
245 6 0.0129086 0.480559 0.102189
246 6 0.338136 0.31804 0.00313978
249 6 0.338118 0.480558 0.102111
283 3 0.480713 0.277706 0.317904
67 1 0.750669 0.372832 0.202564
68 2 0.748253 0.432148 0.23891
69 2 0.669611 0.336519 0.154895
91 1 0.429058 0.900707 0.228339
169 1 0.620429 0.182389 0.285431
170 2 0.582457 0.232469 0.313477
171 2 0.659537 0.165125 0.32325
172 1 0.573413 0.533091 0.241575
173 2 0.589769 0.474744 0.226997
174 2 0.541042 0.584415 0.212231
237 6 0.500644 0.155422 0.00318292
239 6 0.825857 0.155385 0.00323145
240 6 0.663319 0.155477 0.102057
241 6 0.988396 0.15543 0.102085
247 6 0.500732 0.480556 0.00321206
248 6 0.500662 0.317983 0.102091
250 6 0.663291 0.318105 0.00318595
251 6 0.82603 0.480594 0.00315872
252 6 0.825958 0.318081 0.10207
253 6 0.663242 0.480585 0.102058
254 6 0.988411 0.318114 0.00322418
255 6 0.988366 0.480687 0.1021
19 1 0.396178 0.562115 0.190255
20 2 0.410545 0.59937 0.150429
21 2 0.423545 0.623631 0.213723
25 1 0.972549 0.249754 0.327972
27 2 0.904774 0.217851 0.311279
28 1 0.40627 0.744181 0.499349
30 2 0.371205 0.674604 0.497736
104 2 0.419806 0.168678 0.342713
145 1 0.346537 0.753923 0.235161
146 2 0.407242 0.806357 0.25477
147 2 0.277627 0.757828 0.256687
256 6 0.0129891 0.643102 0.00312918
257 6 0.175506 0.805917 0.00318901
258 6 0.17547 0.6432 0.102066
259 6 0.0130104 0.805807 0.102098
260 6 0.338068 0.643273 0.00320344
263 6 0.338021 0.805695 0.102057
270 6 0.0128534 0.968419 0.0031904
271 6 0.175559 0.968399 0.102082
272 6 0.337953 0.968395 0.00319474
282 3 0.249067 0.801967 0.409079
289 4 0.171007 0.499051 0.27774
4 1 0.788975 0.851558 0.19213
5 2 0.83226 0.796474 0.205556
6 2 0.728736 0.821873 0.149126
92 2 0.434599 0.891856 0.184268
93 2 0.353376 0.913942 0.240014
106 1 0.664559 0.652104 0.175521
107 2 0.733975 0.60754 0.165038
108 2 0.64498 0.64646 0.221191
118 1 0.991057 0.962102 0.198729
119 2 0.950296 0.950514 0.181426
120 2 0.959442 -0.00212997 0.234118
125 2 0.709915 0.82297 0.272721
261 6 0.500821 0.805815 0.00321009
262 6 0.50069 0.643245 0.102124
264 6 0.663277 0.643131 0.00315196
265 6 0.825846 0.805715 0.00318343
266 6 0.825921 0.643229 0.102039
267 6 0.663304 0.805708 0.102116
268 6 0.988454 0.64327 0.00316726
269 6 0.988443 0.805732 0.102072
273 6 0.500652 0.968339 0.102086
274 6 0.663246 0.968481 0.00320027
275 6 0.825784 0.968444 0.102067
276 6 0.988449 0.968401 0.00318678
280 3 0.207918 0.894079 0.357793
7 1 0.328978 0.341923 0.518785
8 2 0.258349 0.32223 0.519087
9 2 0.366915 0.401669 0.515772
14 2 0.748974 0.130532 0.441633
37 1 0.15316 0.367075 0.595522
38 2 0.120714 0.457332 0.585242
39 2 0.223414 0.383595 0.636755
59 2 0.563299 0.533051 0.368801
62 2 0.38308 0.470454 0.639977
63 2 0.334804 0.45018 0.590702
64 1 0.222678 0.0370541 0.684174
65 2 0.202581 0.952921 0.664451
66 2 0.278633 0.0217454 0.711368
73 1 0.0388292 0.260656 0.447264
74 2 0.970776 0.202497 0.446041
75 2 0.0588057 0.274868 0.402071
83 2 0.225846 0.105118 0.367373
84 2 0.200356 0.175339 0.284505
136 1 0.282634 0.440682 0.382892
137 2 0.228009 0.496731 0.377435
138 2 0.352036 0.478404 0.386463
175 1 0.53315 0.291258 0.466523
176 2 0.574947 0.273347 0.501938
177 2 0.46464 0.296185 0.487439
187 1 0.345194 0.236564 0.687176
188 2 0.385814 0.182509 0.711034
189 2 0.35746 0.265404 0.631033
277 3 0.366537 0.243988 0.445549
284 4 0.796263 0.651573 0.377618
288 4 0.496633 0.0308371 0.500073
11 2 0.576579 0.975239 0.366576
13 1 0.725512 0.054441 0.443874
15 2 0.780462 0.0359036 0.476617
35 2 0.894963 0.694042 0.689975
43 1 0.864612 0.115157 0.249526
44 2 0.911467 0.120601 0.216182
45 2 0.819771 0.144033 0.269808
55 1 0.846702 0.163763 0.383968
56 2 0.872049 0.258323 0.370717
57 2 0.797346 0.140856 0.398461
76 1 0.731961 0.00128114 0.592834
77 2 0.75086 0.0679928 0.553
97 1 0.650288 0.467842 0.447429
98 2 0.678095 0.540307 0.459626
99 2 0.589327 0.4595 0.471717
121 1 0.584753 0.481424 0.646282
122 2 0.559967 0.505137 0.596524
129 2 0.619193 0.25143 0.576396
133 1 0.801426 0.524744 0.568207
135 2 0.726513 0.483546 0.571425
160 1 0.725203 0.383915 0.338504
161 2 0.708405 0.408407 0.382847
162 2 0.706476 0.311324 0.322077
181 1 0.910594 0.352435 0.593356
182 2 0.943285 0.421004 0.585844
183 2 0.982373 0.292452 0.596907
281 3 0.592153 0.246311 0.396707
290 4 0.633918 0.742069 0.450925
12 2 0.46628 0.0694744 0.3801
16 1 0.0616469 0.606516 0.391434
17 2 0.0216958 0.566693 0.435108
18 2 0.0526846 0.701884 0.383586
29 2 0.356914 0.743989 0.456317
31 1 0.0797028 0.762902 0.472155
32 2 0.137376 0.727667 0.439166
33 2 0.0976193 0.720924 0.508284
46 1 0.159723 0.440627 0.489689
47 2 0.21533 0.493052 0.509527
48 2 0.164992 0.409795 0.547051
61 1 0.385185 0.406778 0.616167
70 1 0.912979 0.966013 0.563867
71 2 0.919345 0.0229312 0.552609
72 2 0.874359 0.852971 0.529528
79 1 0.223285 0.592168 0.572015
80 2 0.187322 0.64792 0.559563
81 2 0.158928 0.562083 0.571258
85 1 0.025937 0.0121066 0.422415
86 2 0.951769 0.0408373 0.410022
87 2 0.0624521 0.952221 0.39875
96 2 0.432251 0.579708 0.575515
100 1 0.422273 0.791162 0.648044
102 2 0.344234 0.754627 0.640716
178 1 0.368754 0.576299 0.456286
179 2 0.339474 0.506117 0.450905
180 2 0.434214 0.5626 0.430336
10 1 0.507262 0.98348 0.377978
49 1 0.481061 0.656284 0.306534
50 2 0.483827 0.592319 0.279205
51 2 0.40619 0.633579 0.299164
52 1 0.80691 0.817541 0.686693
53 2 0.857539 0.785959 0.656136
54 2 0.737812 0.796605 0.673752
78 2 0.772312 0.929639 0.574456
94 1 0.456098 0.541267 0.546277
95 2 0.419221 0.577813 0.50874
101 2 0.449153 0.711871 0.637895
115 1 0.86826 0.831976 0.532988
116 2 0.874046 0.863706 0.476404
117 2 0.909615 0.959275 0.556064
124 1 0.677244 0.839515 0.313126
126 2 0.680715 0.78948 0.348823
127 1 0.573962 0.190583 0.585498
134 2 0.842842 0.499385 0.534177
148 1 0.929231 0.839409 0.376133
149 2 0.867028 0.866274 0.354818
150 2 0.934825 0.761797 0.387267
163 1 0.607641 0.665485 0.657634
164 2 0.556404 0.612653 0.640352
22 1 0.452212 0.426541 0.716093
23 2 0.405769 0.348944 0.704975
24 2 0.481246 0.404375 0.671651
40 1 0.424084 0.0691272 0.800949
109 1 0.157194 0.170368 0.779181
110 2 0.194387 0.140245 0.737729
111 2 0.120937 0.203172 0.74351
154 1 0.330511 0.260439 0.802996
155 2 0.28933 0.24025 0.764737
156 2 0.272132 0.22131 0.824106
193 5 0.0129109 0.155313 0.893335
194 5 0.338057 0.155426 0.893338
197 5 0.175472 0.318093 0.893269
198 5 0.0131042 0.480701 0.893262
200 5 0.338071 0.480562 0.893309
214 5 0.175528 0.155448 0.992167
217 5 0.0129807 0.318051 0.992189
218 5 0.175471 0.480572 0.992157
219 5 0.338048 0.318054 0.992248
285 4 0.944047 0.0789176 0.660644
286 4 0.925769 0.955439 0.770962
3 2 0.814926 0.307049 0.65098
34 1 0.91972 0.633039 0.656375
36 2 0.91373 0.573415 0.6889
88 1 0.785529 0.194958 0.600895
89 2 0.873197 0.193864 0.610571
90 2 0.787784 0.126452 0.631309
112 1 0.554554 0.139279 0.713799
113 2 0.50712 0.125092 0.68084
114 2 0.481841 0.109397 0.738268
123 2 0.582747 0.55721 0.676269
130 1 0.734444 0.982222 0.724106
132 2 0.678211 0.0203445 0.699836
184 1 0.922353 0.24665 0.758388
185 2 0.995666 0.228292 0.799403
186 2 0.819855 0.332101 0.713653
195 5 0.663201 0.155529 0.893275
196 5 0.988455 0.155408 0.893288
199 5 0.500789 0.318077 0.893336
201 5 0.825832 0.317904 0.893341
202 5 0.663247 0.480595 0.893332
203 5 0.988369 0.480647 0.89328
215 5 0.500631 0.155327 0.992178
216 5 0.825858 0.155468 0.992276
220 5 0.500849 0.480655 0.992183
221 5 0.663325 0.318088 0.992288
222 5 0.825802 0.480548 0.992116
223 5 0.988377 0.318014 0.992195
279 3 0.626131 0.298041 0.799102
41 2 0.35911 0.071496 0.827752
42 2 0.508557 0.104603 0.840608
128 2 0.625772 0.166098 0.620339
151 1 0.398119 0.597448 0.780753
152 2 0.423502 0.629018 0.828081
153 2 0.48442 0.580253 0.779014
166 1 0.957169 0.616764 0.500873
167 2 0.874062 0.649144 0.497084
168 2 0.954155 0.560449 0.544145
190 1 0.297715 0.643457 0.661564
191 2 0.281745 0.729996 0.684149
192 2 0.355932 0.669361 0.691573
204 5 0.175399 0.643253 0.893285
205 5 0.0128897 0.805792 0.893259
207 5 0.338171 0.805878 0.893231
211 5 0.175568 0.968306 0.893275
224 5 0.0129573 0.643159 0.992212
225 5 0.175517 0.805699 0.992201
226 5 0.338101 0.643105 0.992178
231 5 0.0129915 0.968355 0.992169
232 5 0.338151 0.968267 0.992212
278 3 0.340677 0.527057 0.704678
287 4 0.135495 0.838026 0.595992
1 1 0.816013 0.402958 0.682406
2 2 0.754712 0.449636 0.649512
131 2 0.773383 0.930232 0.696004
139 1 0.977236 0.704678 0.781071
140 2 0.935825 0.641035 0.782004
141 2 0.918695 0.736144 0.80182
157 1 0.751892 0.602575 0.772807
158 2 0.782661 0.524735 0.80815
159 2 0.820099 0.594016 0.731055
165 2 0.575633 0.72943 0.673005
206 5 0.500549 0.643102 0.893296
208 5 0.825823 0.643129 0.893309
209 5 0.663191 0.805782 0.893305
210 5 0.988422 0.805839 0.893293
212 5 0.500653 0.968386 0.893327
213 5 0.825895 0.968404 0.893246
227 5 0.5007 0.805812 0.992161
228 5 0.663266 0.643239 0.99214
229 5 0.825792 0.805862 0.992209
230 5 0.988539 0.643122 0.992146
233 5 0.663215 0.968242 0.992176
234 5 0.988378 0.968278 0.992276
ITEM: TIMESTEP
200
ITEM: NUMBER OF ATOMS
290
ITEM: BOX BOUNDS pp pp pp
-1.6070000000000001e-01 1.2263700000000000e+01
8.8669999999999999e-02 1.2513070000000001e+01
-4.1049920000000002e+00 1.6319407999999999e+01
ITEM: ATOMS id type xs ys zs
26 2 0.0583903 0.111649 0.246616
58 1 0.519032 0.476296 0.350758
60 2 0.53092 0.520281 0.383618
82 1 0.225993 0.00841406 0.302101
103 1 0.285769 0.82092 0.449584
105 2 0.244207 0.892167 0.448905
142 1 0.4144 0.134778 0.270623
143 2 0.344776 0.105417 0.244203
144 2 0.456589 0.0869024 0.303563
235 6 0.175587 0.15542 0.00322216
236 6 0.0128775 0.155254 0.102004
238 6 0.338359 0.155561 0.102093
242 6 0.0127711 0.318173 0.00308924
243 6 0.175428 0.480813 0.00315251
244 6 0.175526 0.318197 0.10199
245 6 0.0128829 0.480505 0.102294
246 6 0.33817 0.318051 0.00309748
249 6 0.338135 0.480503 0.102138
283 3 0.319111 0.342902 0.257416
67 1 0.693616 0.366552 0.178026
68 2 0.663642 0.310671 0.150025
69 2 0.659077 0.425476 0.141389
91 1 0.300828 0.0259663 0.19102
169 1 0.568978 0.236668 0.377595
170 2 0.522068 0.219039 0.412396
171 2 0.535199 0.220017 0.334938
172 1 0.494718 0.452382 0.203211
173 2 0.557845 0.470662 0.233296
174 2 0.466398 0.36906 0.206462
237 6 0.500604 0.155397 0.00318376
239 6 0.825863 0.155324 0.00328082
240 6 0.66337 0.155507 0.102031
241 6 0.988358 0.155413 0.102087
247 6 0.50078 0.4805 0.00324204
248 6 0.500641 0.317936 0.102099
250 6 0.663314 0.318181 0.00318981
251 6 0.82621 0.480575 0.00313537
252 6 0.826065 0.318133 0.102057
253 6 0.663216 0.480558 0.102033
254 6 0.988388 0.318198 0.00326628
255 6 0.988298 0.48076 0.102117
19 1 0.38775 0.522018 0.315403
20 2 0.476684 0.476577 0.31642
21 2 0.397614 0.595806 0.339001
25 1 0.139869 0.156598 0.247139
27 2 0.1568 0.245384 0.24061
28 1 0.650695 0.763971 0.5908
30 2 0.619449 0.762069 0.636283
104 2 0.322323 0.879028 0.46816
145 1 0.150105 0.867734 0.246395
146 2 0.06679 0.898254 0.251295
147 2 0.186107 0.862165 0.194938
256 6 0.0130439 0.643007 0.00307628
257 6 0.175495 0.806054 0.00319594
258 6 0.175422 0.643204 0.102049
259 6 0.0130866 0.805835 0.102112
260 6 0.338034 0.64335 0.00322481
263 6 0.337942 0.80561 0.10203
270 6 0.0127726 0.968475 0.00319872
271 6 0.175601 0.968435 0.10208
272 6 0.337805 0.968427 0.0032074
282 3 0.361195 0.824553 0.580838
289 4 0.170929 0.428712 0.256207
4 1 0.631051 0.902332 0.184057
5 2 0.696034 0.935535 0.193506
6 2 0.655486 0.873135 0.107453
92 2 0.253695 0.0946085 0.170917
93 2 0.236603 0.025834 0.236845
106 1 0.470959 0.738323 0.221303
107 2 0.402711 0.678801 0.235338
108 2 0.554429 0.757254 0.235394
118 1 0.0159753 0.976755 0.205586
119 2 0.933977 0.956304 0.195999
120 2 0.0842726 0.930474 0.214532
125 2 0.809358 0.105515 0.151153
261 6 0.500958 0.805851 0.00323811
262 6 0.500696 0.643294 0.102165
264 6 0.663286 0.643066 0.00312184
265 6 0.825841 0.805651 0.00318478
266 6 0.82599 0.643261 0.101996
267 6 0.66334 0.805637 0.102148
268 6 0.988473 0.643343 0.00315244
269 6 0.988451 0.805683 0.10206
273 6 0.500621 0.968316 0.102089
274 6 0.663224 0.9686 0.00321846
275 6 0.825718 0.968525 0.10205
276 6 0.988464 0.968439 0.00319149
280 3 0.410691 0.90151 0.340056
7 1 0.368049 0.0205885 0.549931
8 2 0.329795 -0.00279183 0.593482
9 2 0.378688 0.944645 0.535171
14 2 0.832578 0.792585 0.360676
37 1 0.16473 0.211269 0.62453
38 2 0.230354 0.210899 0.615713
39 2 0.164947 0.208699 0.58186
59 2 0.4088 0.524348 0.324009
62 2 0.243421 0.378392 0.641785
63 2 0.272342 0.404096 0.732568
64 1 0.366089 0.824141 0.667392
65 2 0.302014 0.822101 0.645222
66 2 0.372242 0.750952 0.703753
73 1 0.748518 0.356042 0.436752
74 2 0.721512 0.302885 0.470488
75 2 0.690901 0.417193 0.421634
83 2 0.237429 0.014373 0.342728
84 2 0.155056 0.0270326 0.300446
136 1 0.308514 0.375383 0.391895
137 2 0.258233 0.380881 0.35432
138 2 0.364503 0.41137 0.398938
175 1 0.441711 0.278822 0.479808
176 2 0.488153 0.35927 0.479078
177 2 0.466848 0.286871 0.521064
187 1 0.418335 0.207282 0.720646
188 2 0.338554 0.189575 0.729457
189 2 0.439412 0.115003 0.727155
277 3 0.275257 0.156614 0.384369
284 4 0.820852 0.653028 0.236017
288 4 0.644191 0.0954028 0.457271
11 2 0.673708 0.847203 0.333043
13 1 0.83111 0.823366 0.397724
15 2 0.810231 0.886199 0.379928
35 2 0.89029 0.572006 0.685159
43 1 0.825705 0.879837 0.292587
44 2 0.788449 0.926754 0.323295
45 2 0.881593 0.932179 0.323292
55 1 0.732649 0.177222 0.287042
56 2 0.657445 0.168318 0.249838
57 2 0.74065 0.148362 0.246058
76 1 0.440416 0.0349762 0.660727
77 2 0.428236 0.0568793 0.604992
97 1 0.756625 0.530973 0.397104
98 2 0.743715 0.5267 0.341839
99 2 0.825129 0.519122 0.421064
121 1 0.667324 0.537357 0.55791
122 2 0.714314 0.515626 0.601564
129 2 0.671802 0.287689 0.575018
133 1 0.899977 0.412523 0.543998
135 2 0.983093 0.420147 0.56326
160 1 0.901682 0.456049 0.277787
161 2 0.949447 0.412683 0.297682
162 2 0.962256 0.488218 0.268048
181 1 0.974191 0.138319 0.576114
182 2 0.970982 0.204341 0.568556
183 2 0.886718 0.143248 0.598558
281 3 0.0223475 0.115976 0.483215
290 4 0.510687 0.688681 0.461151
12 2 0.628692 0.954697 0.35629
16 1 0.0395786 0.550709 0.343051
17 2 0.00708671 0.475255 0.356879
18 2 0.0744823 0.61914 0.358286
29 2 0.664164 0.710552 0.565644
31 1 0.0678564 0.924675 0.430742
32 2 0.985426 0.935731 0.443609
33 2 0.0888928 0.842791 0.428793
46 1 0.0972044 0.373803 0.391915
47 2 0.0751532 0.363551 0.437349
48 2 0.136959 0.309113 0.390084
61 1 0.263296 0.429789 0.681183
70 1 0.963259 0.976471 0.541065
71 2 0.883803 0.00845572 0.549314
72 2 0.904544 0.866796 0.518788
79 1 0.0448414 0.415005 0.647172
80 2 0.0989283 0.360974 0.627396
81 2 0.00702145 0.428132 0.693812
85 1 0.938911 0.122305 0.340538
86 2 0.937305 0.18727 0.360912
87 2 0.867181 0.141951 0.328069
96 2 0.570979 0.570371 0.548145
100 1 0.460828 0.871371 0.760777
102 2 0.529581 0.848399 0.77931
178 1 0.195899 0.660623 0.524569
179 2 0.130542 0.701806 0.508533
180 2 0.124513 0.623711 0.526877
10 1 0.628114 0.885404 0.360669
49 1 0.338434 0.711414 0.354863
50 2 0.268375 0.741226 0.351686
51 2 0.329674 0.732003 0.312429
52 1 0.815786 0.754672 0.697149
53 2 0.812775 0.818875 0.725562
54 2 0.733629 0.711669 0.705234
78 2 0.395817 0.118746 0.668167
94 1 0.478808 0.555753 0.542613
95 2 0.451623 0.617334 0.56939
101 2 0.444267 0.948128 0.774271
115 1 0.898663 0.846913 0.529499
116 2 0.904429 0.894492 0.493657
117 2 0.947021 0.970993 0.546481
124 1 0.76202 0.062819 0.182755
126 2 0.742078 0.994886 0.166779
127 1 0.701362 0.358033 0.542909
134 2 0.906405 0.443157 0.506221
148 1 0.97815 0.706628 0.351941
149 2 0.933582 0.681686 0.315388
150 2 0.0242596 0.765083 0.34095
163 1 0.63674 0.748728 0.769112
164 2 0.66848 0.726081 0.809526
22 1 0.665399 0.294158 0.717893
23 2 0.644436 0.288882 0.759924
24 2 0.660777 0.358533 0.747429
40 1 0.499324 0.175991 0.838553
109 1 0.0202411 0.146247 0.778001
110 2 0.924413 0.18365 0.744575
111 2 0.0128218 0.168467 0.729467
154 1 0.231066 0.548155 0.787954
155 2 0.236661 0.498137 0.820636
156 2 0.190484 0.528722 0.756658
193 5 0.0128877 0.155179 0.893375
194 5 0.338013 0.155406 0.893381
197 5 0.175426 0.318157 0.893244
198 5 0.0132742 0.480789 0.893229
200 5 0.338042 0.480511 0.893324
214 5 0.175538 0.15545 0.992138
217 5 0.0130271 0.318073 0.992182
218 5 0.175425 0.480532 0.992119
219 5 0.337995 0.318079 0.9923
285 4 0.0312376 0.0459896 0.665656
286 4 0.906341 0.90366 0.784602
3 2 0.851908 0.374207 0.702193
34 1 0.939977 0.574949 0.648264
36 2 0.930017 0.645754 0.620324
88 1 0.808373 0.175405 0.537034
89 2 0.862582 0.235462 0.551967
90 2 0.789498 0.2092 0.496778
112 1 0.66567 0.217649 0.606945
113 2 0.625923 0.23919 0.659267
114 2 0.661929 0.176199 0.570081
123 2 0.676241 0.463485 0.564443
130 1 0.650761 0.97348 0.761514
132 2 0.596877 0.0134907 0.78443
184 1 0.895993 0.258159 0.695001
185 2 0.00218116 0.151712 0.76566
186 2 0.778261 0.382778 0.622515
195 5 0.663134 0.155612 0.893257
196 5 0.988477 0.15537 0.893282
199 5 0.500895 0.318124 0.893378
201 5 0.825813 0.317779 0.893387
202 5 0.663227 0.480577 0.89337
203 5 0.988305 0.480682 0.893266
215 5 0.500578 0.155207 0.992161
216 5 0.825864 0.15549 0.992357
220 5 0.501014 0.480698 0.99217
221 5 0.663383 0.318146 0.99238
222 5 0.825754 0.480483 0.992036
223 5 0.98832 0.317997 0.992196
279 3 0.693708 0.342808 0.844809
41 2 0.439889 0.162639 0.873742
42 2 0.537277 0.230734 0.865967
128 2 0.654306 0.424102 0.534465
151 1 0.41892 0.699394 0.774997
152 2 0.357622 0.710275 0.800653
153 2 0.398531 0.780224 0.756467
166 1 0.00583445 0.669407 0.494274
167 2 0.0394497 0.627836 0.529107
168 2 0.0131403 0.669363 0.453504
190 1 0.151931 0.825235 0.820052
191 2 0.0843508 0.799813 0.829476
192 2 0.177318 0.841141 0.778889
204 5 0.17528 0.64331 0.893276
205 5 0.0128452 0.805804 0.893223
207 5 0.338242 0.805977 0.893168
211 5 0.175619 0.968249 0.893257
224 5 0.0129804 0.643122 0.992229
225 5 0.175516 0.805618 0.992207
226 5 0.338101 0.643014 0.99216
231 5 0.0130488 0.968348 0.992142
232 5 0.338202 0.968172 0.992228
278 3 0.597685 0.43527 0.656506
287 4 0.108987 0.781184 0.641702
1 1 0.782875 0.435477 0.693716
2 2 0.768836 0.374796 0.735213
131 2 0.636487 0.983534 0.714624
139 1 0.0325174 0.599194 0.758618
140 2 0.0204222 0.630801 0.713133
141 2 0.00756048 0.531603 0.774662
157 1 0.775181 0.480562 0.798309
158 2 0.792382 0.439571 0.73958
159 2 0.783279 0.454607 0.837188
165 2 0.621029 0.683725 0.758541
206 5 0.500413 0.643008 0.893297
208 5 0.825794 0.643061 0.893323
209 5 0.663115 0.805784 0.893316
210 5 0.98841 0.805898 0.893292
212 5 0.500622 0.968408 0.89336
213 5 0.825939 0.968446 0.893197
227 5 0.500717 0.805845 0.992127
228 5 0.663265 0.643281 0.992085
229 5 0.825734 0.805945 0.992223
230 5 0.988644 0.643047 0.992098
233 5 0.663162 0.96812 0.992156
234 5 0.988321 0.968193 0.992357
ITEM: TIMESTEP
300
ITEM: NUMBER OF ATOMS
290
ITEM: BOX BOUNDS pp pp pp
-1.6070000000000001e-01 1.2263700000000000e+01
8.8669999999999999e-02 1.2513070000000001e+01
-4.1049920000000002e+00 1.6319407999999999e+01
ITEM: ATOMS id type xs ys zs
26 2 0.124938 0.136638 0.215748
58 1 0.521166 0.468832 0.360107
60 2 0.547106 0.542184 0.333656
82 1 0.229945 0.895651 0.384558
103 1 0.160178 0.782113 0.459452
105 2 0.0996887 0.818222 0.463729
142 1 0.363413 0.158405 0.345655
143 2 0.289255 0.135419 0.359747
144 2 0.387375 0.23017 0.357995
235 6 0.175622 0.155406 0.0032422
236 6 0.0128491 0.155157 0.101964
238 6 0.338488 0.155618 0.102098
242 6 0.0126896 0.318245 0.00304282
243 6 0.175383 0.480913 0.00313772
244 6 0.175531 0.31828 0.101944
245 6 0.0128573 0.480452 0.102399
246 6 0.338205 0.318062 0.00305518
249 6 0.338152 0.480448 0.102166
283 3 0.324809 0.288275 0.148306