LAMMPS (6 Apr 2015)
Created orthogonal box = (0 0 0) to (8 8 8)
  1 by 1 by 1 MPI processor grid
Created 250 atoms
Created 250 atoms
Neighbor list info ...
  1 neighbor list requests
  update every 20 steps, delay 0 steps, check no
  master list distance cutoff = 4.3
Setting up run ...
Memory usage per processor = 2.1412 Mbytes
Step Temp KinEng PotEng TotEng Volume Press Pxx Pyy Pzz Lx Ly Lz Enthalpy 
       0          0.1       0.1497 2.2226108e+09 2.2226108e+09          512 8.6821021e+09 1.4859595e+10 2.1264369e+09 9.0602742e+09            8            8            8 1.1113083e+10 
    1000    930.47713    1392.9243     253.5228    1646.4471          512    2041.5976    1949.4726    1949.9367    2225.3836            8            8            8     3737.043 
    2000    1011.9345    1514.8659    249.75163    1764.6176          512    2104.0187    2033.6138    2017.1397    2261.3025            8            8            8    3919.1327 
    3000    967.13231    1447.7971    273.55494     1721.352          512    2157.7892    2165.8768    2128.7318    2178.7591            8            8            8    3930.9281 
    4000    1008.0599    1509.0656    261.01678    1770.0824          512    2147.8036    2030.8024    2128.0241    2284.5844            8            8            8    3969.4333 
    5000    948.15316    1419.3853    244.54118    1663.9265          512    2019.3621    2054.3182    1893.7541    2110.0139            8            8            8    3731.7532 
    6000    898.76917    1345.4574    266.10874    1611.5662          512    2065.3674     2334.478    1902.3809    1959.2435            8            8            8    3726.5024 
    7000    957.23399    1432.9793     248.8501    1681.8294          512     2052.456     2082.159     2108.814    1966.3949            8            8            8    3783.5443 
    8000    1011.9266    1514.8541    234.65277    1749.5069          512    2043.2216    2151.2634    2051.2839    1927.1174            8            8            8    3841.7658 
    9000    1010.1525    1512.1983    221.12331    1733.3216          512    1985.5954    2068.7264    1784.8248     2103.235            8            8            8    3766.5714 
   10000    998.55343    1494.8345    235.29561    1730.1301          512    2030.3311    1985.8515     2183.343    1921.7989            8            8            8    3809.1892 
Loop time of 23.0322 on 1 procs for 10000 steps with 500 atoms

Pair  time (%) = 20.3013 (88.1434)
Neigh time (%) = 2.20711 (9.58272)
Comm  time (%) = 0.373826 (1.62306)
Outpt time (%) = 0.000172138 (0.000747382)
Other time (%) = 0.149719 (0.650044)

Nlocal:    500 ave 500 max 500 min
Histogram: 1 0 0 0 0 0 0 0 0 0
Nghost:    3994 ave 3994 max 3994 min
Histogram: 1 0 0 0 0 0 0 0 0 0
Neighs:    81038 ave 81038 max 81038 min
Histogram: 1 0 0 0 0 0 0 0 0 0

Total # of neighbors = 81038
Ave neighs/atom = 162.076
Neighbor list builds = 500
Dangerous builds = 0
Setting up run ...
Memory usage per processor = 2.1412 Mbytes
Step Temp KinEng PotEng TotEng Volume Press Pxx Pyy Pzz Lx Ly Lz Enthalpy 
   10000    998.55343    1494.8345    235.29561    1730.1301          512    2030.3311    1985.8515     2183.343    1921.7989            8            8            8    3809.1892 
   11000   0.53890509   0.80674092   -18.375438   -17.568697          512   -1.1400307  -0.33691565   -1.4342575   -1.6489189            8            8            8   -18.736088 
   12000   0.15130285   0.22650037   -19.496858   -19.270357          512   -4.8976316    -4.540216   -4.9243128    -5.228366            8            8            8   -24.285532 
   13000  0.093743835   0.14033452   -19.862438   -19.722103          512   -5.5995311   -5.5110497   -6.0333365    -5.254207            8            8            8   -25.456023 
   14000  0.071172283   0.10654491   -20.011462   -19.904917          512   -5.9161593   -6.1655778   -5.4648875   -6.1180126            8            8            8   -25.963064 
   15000  0.083945958    0.1256671   -20.143159   -20.017492          512   -6.0948343   -5.5161702   -6.7651294   -6.0032033            8            8            8   -26.258602 
   16000  0.073638981   0.11023755   -20.187209   -20.076971          512   -6.2605484    -5.830319   -6.5883291   -6.3629972            8            8            8   -26.487773 
   17000  0.087608837   0.13115043   -20.213082   -20.081932          512   -5.9849348   -5.5629112   -6.2744257   -6.1174674            8            8            8   -26.210505 
   18000   0.11315719   0.16939631   -20.230806    -20.06141          512   -5.8481263   -5.2951506   -6.3873265   -5.8619017            8            8            8   -26.049891 
   19000   0.13217541   0.19786659   -20.277692   -20.079825          512   -5.8490783   -5.3442677   -6.1665947   -6.0363724            8            8            8   -26.069281 
   20000   0.10907054    0.1632786    -20.33994   -20.176661          512   -6.1343384   -5.3103931   -6.2595932   -6.8330289            8            8            8   -26.458224 
   21000  0.089660663   0.13422201   -20.419009   -20.284787          512   -6.1798118   -5.2805064   -6.3360268   -6.9229021            8            8            8   -26.612914 
   22000   0.07693051   0.11516497     -20.4612   -20.346035          512   -6.3863732   -5.9009207      -6.5897    -6.668499            8            8            8   -26.885682 
   23000  0.075981874   0.11374487   -20.465562   -20.351817          512    -6.180217   -5.7703385   -6.2617812   -6.5085313            8            8            8   -26.680359 
   24000  0.095587319   0.14309422   -20.444678   -20.301583          512   -5.9533807   -5.4977479   -6.3271364   -6.0352578            8            8            8   -26.397845 
   25000   0.12168573   0.18216354   -20.408444    -20.22628          512    -5.932936   -5.3300588   -6.5824032    -5.886346            8            8            8   -26.301607 
   26000   0.13025669   0.19499427   -20.414184   -20.219189          512   -5.9587075   -5.8699612   -5.7830246   -6.2231368            8            8            8   -26.320906 
   27000   0.10289249   0.15403005    -20.46504    -20.31101          512   -6.2080414   -5.9768272   -6.4383393   -6.2089575            8            8            8   -26.668045 
   28000  0.082189973   0.12303839   -20.512329   -20.389291          512   -6.3797571   -6.0837382   -6.6508905   -6.4046427            8            8            8   -26.922162 
   29000  0.081457088   0.12194126   -20.536463   -20.414522          512   -6.4904661   -6.3601614   -6.8204265   -6.2908105            8            8            8   -27.060759 
   30000  0.098120655   0.14688662   -20.536593   -20.389707          512   -6.2919585   -6.1405117    -6.393196   -6.3421677            8            8            8   -26.832672 
Loop time of 41.2477 on 1 procs for 20000 steps with 500 atoms

Pair  time (%) = 36.4552 (88.3811)
Neigh time (%) = 3.74323 (9.075)
Comm  time (%) = 0.668311 (1.62024)
Outpt time (%) = 0.000320196 (0.000776276)
Other time (%) = 0.38066 (0.922863)

Nlocal:    500 ave 500 max 500 min
Histogram: 1 0 0 0 0 0 0 0 0 0
Nghost:    3946 ave 3946 max 3946 min
Histogram: 1 0 0 0 0 0 0 0 0 0
Neighs:    80801 ave 80801 max 80801 min
Histogram: 1 0 0 0 0 0 0 0 0 0

Total # of neighbors = 80801
Ave neighs/atom = 161.602
Neighbor list builds = 1000
Dangerous builds = 0
Setting up run ...
Memory usage per processor = 2.1412 Mbytes
Step Temp KinEng PotEng TotEng Volume Press Pxx Pyy Pzz Lx Ly Lz Enthalpy 
   30000  0.098120655   0.14688662   -20.536593   -20.389707          512   -6.2919585   -6.1405117    -6.393196   -6.3421677            8            8            8   -26.832672 
   31000   0.11081088   0.16588388   -20.538015   -20.372131          512   -6.3504249   -5.9997625   -6.5316644   -6.5198478            8            8            8   -26.874966 
   32000   0.12345526   0.18481252   -20.513659   -20.328846          512   -6.0273711   -5.7858254   -6.1967347   -6.0995532            8            8            8   -26.500874 
   33000   0.15256992   0.22839717   -20.487475   -20.259078          512   -5.9898966   -5.6077038    -6.138531   -6.2234551            8            8            8   -26.392732 
   34000   0.18377763   0.27511512   -20.438081   -20.162965          512   -5.7757601   -5.4549541   -5.8320473   -6.0402789            8            8            8   -26.077344 
   35000   0.23037598   0.34487284   -20.380423    -20.03555          512   -5.2423459   -4.8217563   -5.3323308   -5.5729505            8            8            8   -25.403713 
   36000   0.27861831   0.41709161   -20.289316   -19.872224          512   -4.8342756   -4.5813463   -4.8167418   -5.1047386            8            8            8   -24.822523 
   37000   0.36225626   0.54229761   -20.211425   -19.669127          512    -4.667023   -4.4118625   -4.6108356   -4.9783709            8            8            8   -24.448159 
   38000    0.4262457   0.63808981   -20.057585   -19.419495          512   -3.8285362   -4.0676104   -3.6163676   -3.8016307            8            8            8   -23.339916 
   39000   0.53001789   0.79343679   -19.920384   -19.126947          512   -2.9959426   -2.0491395   -2.9804484   -3.9582398            8            8            8   -22.194792 
   40000    0.6514019   0.97514865   -19.769059    -18.79391          512   -2.3795452   -1.5687206   -2.7141891   -2.8557258            8            8            8   -21.230565 
   41000   0.77940234    1.1667653   -19.603027   -18.436262          512   -1.2815063  -0.81828873    -1.359265   -1.6669651            8            8            8   -19.748525 
   42000   0.86601976    1.2964316   -19.374635   -18.078204          512  -0.15291768   0.27964015  -0.27092093  -0.46747227            8            8            8   -18.234792 
   43000     1.034604    1.5488021   -19.289763   -17.740961          512  0.088511474   0.78795943   0.13167726  -0.65410227            8            8            8   -17.650326 
   44000    1.0589592    1.5852619    -19.05724   -17.471978          512    1.1895768    1.7663761    1.3327088   0.46964556            8            8            8   -16.253851 
   45000    1.1343348    1.6980991   -18.975078   -17.276979          512    2.0592602    2.6803346    2.5783754   0.91907048            8            8            8   -15.168296 
   46000    1.1933402    1.7864302   -18.905286   -17.118856          512    2.4566374    4.0102521    1.2825669    2.0770931            8            8            8    -14.60326 
   47000    1.2755871    1.9095539   -18.874567   -16.965013          512    3.0567794    3.1946288    2.3279441    3.6477652            8            8            8   -13.834871 
   48000    1.3912128    2.0826456   -18.827621   -16.744975          512    3.6722515    3.9321939    3.6770868    3.4074738            8            8            8   -12.984589 
   49000    1.4190652    2.1243406   -18.621469   -16.497128          512    4.2732627    4.9508311    4.0647783    3.8041787            8            8            8   -12.121307 
   50000    1.5821883    2.3685358   -18.621126    -16.25259          512    4.4190622    5.4268764    4.8317006    2.9986098            8            8            8    -11.72747 
Loop time of 41.125 on 1 procs for 20000 steps with 500 atoms

Pair  time (%) = 36.3543 (88.3996)
Neigh time (%) = 3.7272 (9.06311)
Comm  time (%) = 0.663025 (1.61222)
Outpt time (%) = 0.000338793 (0.000823812)
Other time (%) = 0.380079 (0.924204)

Nlocal:    500 ave 500 max 500 min
Histogram: 1 0 0 0 0 0 0 0 0 0
Nghost:    3948 ave 3948 max 3948 min
Histogram: 1 0 0 0 0 0 0 0 0 0
Neighs:    80909 ave 80909 max 80909 min
Histogram: 1 0 0 0 0 0 0 0 0 0

Total # of neighbors = 80909
Ave neighs/atom = 161.818
Neighbor list builds = 1000
Dangerous builds = 0
Neighbor list info ...
  2 neighbor list requests
  update every 20 steps, delay 0 steps, check no
  master list distance cutoff = 4.3
Setting up run ...
Memory usage per processor = 3.41027 Mbytes
Step Temp KinEng PotEng TotEng Volume Press Pxx Pyy Pzz Lx Ly Lz Enthalpy 
       0    1.5821883    2.3685358   -18.621126    -16.25259          512    4.4190622    5.4268764    4.8317006    2.9986098            8            8            8    -11.72747 
    1000    1.5277663    2.2870661   -18.528377   -16.241311          512    4.5779447    4.8556107    4.9936902    3.8845332            8            8            8   -11.553495 
    2000    1.5223161    2.2789071   -18.563633   -16.284726          512    4.7783254     4.525543    5.0451849    4.7642483            8            8            8   -11.391721 
    3000    1.4527797    2.1748112   -18.536129   -16.361318          512    4.1543499    5.0153372    3.9750896    3.4726227            8            8            8   -12.107264 
    4000    1.4281102    2.1378809   -18.484344   -16.346463          512    4.6060304    5.9615634    3.7115687     4.144959            8            8            8   -11.629888 
    5000    1.5023369    2.2489983    -18.41014   -16.161142          512    5.1717671    4.3114679    4.6202898    6.5835436            8            8            8   -10.865253 
    6000    1.5745423    2.3570898   -18.447093   -16.090004          512     5.348901    4.4955298    6.1076496    5.4435236            8            8            8   -10.612729 
    7000    1.5112017     2.262269   -18.435793   -16.173524          512     5.150807    5.5269937    4.2588227    5.6666044            8            8            8   -10.899098 
    8000    1.5212436    2.2773017   -18.566767   -16.289465          512    3.8106828    3.3036332    3.1799734    4.9484416            8            8            8   -12.387326 
    9000    1.5190276    2.2739843   -18.563746   -16.289761          512    3.5494494    4.0105438    2.9542914    3.6835129            8            8            8   -12.655125 
   10000    1.4297323    2.1403092   -18.395348   -16.255039          512    5.0730322    4.8748479    6.1653815    4.1788671            8            8            8   -11.060254 
   11000    1.5018051    2.2482023   -18.474111   -16.225909          512    5.0038385    5.5085422    5.4262442    4.0767291            8            8            8   -11.101978 
   12000    1.5176881    2.2719791   -18.475538   -16.203559          512    5.3215723     6.068856    5.0151481    4.8807127            8            8            8   -10.754269 
   13000    1.5198611    2.2752321   -18.449368   -16.174136          512     5.269774    5.8131737    4.8964475    5.0997009            8            8            8   -10.777888 
   14000    1.5087004    2.2585244   -18.464379   -16.205855          512    4.5056919    5.2956533    4.6237062    3.5977161            8            8            8   -11.592026 
   15000    1.5361132    2.2995614   -18.577913   -16.278352          512     4.163346    3.5161382     5.390398    3.5835019            8            8            8   -12.015085 
   16000    1.4594069    2.1847322   -18.542207   -16.357475          512    4.5100026    3.2036085    5.2991851    5.0272143            8            8            8   -11.739232 
   17000    1.4507633    2.1717927    -18.56962   -16.397827          512    3.9501983    4.8932027    4.0014028    2.9559894            8            8            8   -12.352824 
   18000     1.584025    2.3712855   -18.658512   -16.287226          512    4.0983394    3.4603271    4.2942715    4.5404196            8            8            8   -12.090527 
   19000    1.5506055    2.3212564   -18.465026    -16.14377          512    5.5127381    3.7899919    7.9718067    4.7764157            8            8            8   -10.498726 
   20000    1.5209781    2.2769043   -18.414534    -16.13763          512    5.4713473    5.6461017    4.6807337    6.0872066            8            8            8    -10.53497 
   21000     1.476191    2.2098579   -18.513224   -16.303366          512    4.6075149    3.1852602    5.2317419    5.4055425            8            8            8   -11.585271 
   22000    1.4794706    2.2147674   -18.668143   -16.453376          512     4.196788    3.6179151    4.0464543    4.9259947            8            8            8   -12.155865 
   23000    1.4415632    2.1580202   -18.600364   -16.442343          512    4.7582382    5.0403454    5.4261723    3.8081968            8            8            8   -11.569907 
   24000    1.4370261    2.1512281   -18.527618    -16.37639          512    4.5693382    5.5247813    4.2455021    3.9377313            8            8            8   -11.697388 
   25000     1.520314    2.2759101   -18.495866   -16.219955          512    4.8025187    5.8095958    5.3918896    3.2060709            8            8            8   -11.302176 
   26000    1.5962106    2.3895272   -18.466337    -16.07681          512    5.2677688     5.182731    5.5509979    5.0695775            8            8            8   -10.682615 
   27000    1.4904457    2.2311972    -18.41833   -16.187133          512    4.9160358    5.5638471     4.664388    4.5198722            8            8            8   -11.153112 
   28000      1.54414    2.3115776   -18.710589   -16.399011          512    3.6320642    3.9773051    2.9084257     4.010462            8            8            8   -12.679777 
   29000    1.4394525    2.1548604    -18.54248   -16.387619          512    5.0128527    3.9517294    5.0237553    6.0630734            8            8            8   -11.254458 
   30000    1.4940874    2.2366488   -18.520289    -16.28364          512     4.053547    4.4280265    3.0767194    4.6558952            8            8            8   -12.132808 
   31000    1.5343812    2.2969686   -18.449584   -16.152616          512    5.1407302    5.0905758    5.0178566    5.3137582            8            8            8   -10.888508 
   32000     1.478125    2.2127532   -18.386868   -16.174115          512    5.2423694    5.4896702    5.0189554    5.2184826            8            8            8   -10.805929 
   33000     1.469865    2.2003879   -18.618737   -16.418349          512    4.5605008     5.878224    2.7016806     5.101598            8            8            8   -11.748396 
   34000    1.4926155    2.2344453   -18.703928   -16.469483          512    3.9602039    4.5635033    3.0194793     4.297629            8            8            8   -12.414234 
   35000     1.499912    2.2453683   -18.642991   -16.397623          512    3.9018012    4.1083734    3.6597935    3.9372367            8            8            8   -12.402179 
   36000    1.4680556    2.1976793   -18.478238   -16.280559          512    4.5128242    5.7109691     2.878886    4.9486174            8            8            8   -11.659427 
   37000    1.5607276    2.3364092   -18.493999    -16.15759          512    4.7760508    5.0045676    4.3272222    4.9963626            8            8            8   -11.266914 
   38000    1.5140003    2.2664585   -18.424493   -16.158035          512    4.8033293    4.8872926    4.3658503    5.1568452            8            8            8   -11.239425 
   39000     1.450615    2.1715707    -18.56849    -16.39692          512    4.3517429    3.9180587    4.3945036    4.7426665            8            8            8   -11.940735 
   40000    1.4487499    2.1687786   -18.637122   -16.468344          512    3.7697216    3.7635168    2.9691783    4.5764697            8            8            8   -12.608149 
   41000    1.4304673    2.1414095   -18.499685   -16.358275          512    4.6342392    5.6838978    3.2774135    4.9414062            8            8            8   -11.612814 
   42000    1.6066447    2.4051472   -18.629973   -16.224826          512    4.4836552    3.9829055    4.3600955    5.1079645            8            8            8   -11.633563 
   43000     1.502388    2.2490748   -18.512299   -16.263224          512    5.0139442    5.1410679    4.9905165    4.9102483            8            8            8   -11.128945 
   44000    1.5447459    2.3124846   -18.752868   -16.440384          512    4.0227001    3.4155947    4.0060012    4.6465043            8            8            8   -12.321139 
   45000    1.4257457    2.1343413   -18.660953   -16.526612          512    3.9524124    4.5384442    4.1339601    3.1848328            8            8            8   -12.479342 
   46000    1.5000545    2.2455815   -18.758331   -16.512749          512    3.9816523    4.0264101    4.1724907     3.746056            8            8            8   -12.435537 
   47000    1.4728792    2.2049002    -18.60653    -16.40163          512    4.1829879    3.7918687    3.5936867    5.1634083            8            8            8    -12.11825 
   48000     1.494711    2.2375824   -18.510653    -16.27307          512    4.2594619     4.817815    4.0140181    3.9465526            8            8            8   -11.911381 
   49000     1.497336     2.241512   -18.491866   -16.250354          512    4.5885722    4.7367849    4.1894038     4.839528            8            8            8   -11.551656 
   50000    1.4990822    2.2441261    -18.51586   -16.271734          512    4.7117568     5.381376    4.4140328    4.3398617            8            8            8   -11.446895 
   51000    1.4899432     2.230445   -18.513131   -16.282686          512    4.5878017    5.4685195    3.5060251    4.7888605            8            8            8   -11.584777 
   52000    1.4720445    2.2036506   -18.497382   -16.293732          512     4.577867    4.3405766    5.3979287    3.9950958            8            8            8   -11.605996 
   53000    1.5287018    2.2884666   -18.624346    -16.33588          512    3.7680497    3.9674575    4.2283411    3.1083505            8            8            8   -12.477397 
   54000    1.4504919    2.1713863   -18.569878   -16.398492          512    4.3943913    4.1009524    4.0342337    5.0479877            8            8            8   -11.898635 
   55000    1.4134019    2.1158626   -18.613129   -16.497266          512    4.2120948    4.7603008    4.1433762    3.7326073            8            8            8   -12.184081 
   56000    1.4629698    2.1900658   -18.669781   -16.479716          512     3.837069    4.3702205    3.7981471    3.3428393            8            8            8   -12.550557 
   57000    1.4947063    2.2375754   -18.545457   -16.307882          512    4.0738186    3.5361548    5.0192544    3.6660467            8            8            8   -12.136292 
   58000    1.5596231    2.3347558   -18.594692   -16.259936          512    4.5213052     4.993609    4.4001033    4.1702033            8            8            8    -11.63012 
   59000      1.50605    2.2545568   -18.596175   -16.341618          512    4.5029241    5.6017149    4.7710127    3.1360446            8            8            8   -11.730624 
   60000    1.4888434    2.2287986   -18.717491   -16.488692          512    3.7555972    4.6830667    4.0818998     2.501825            8            8            8   -12.642961 
   61000    1.3426682    2.0099742   -18.707177   -16.697202          512    3.8059785      3.46556    4.0140505    3.9383249            8            8            8   -12.799881 
   62000    1.3167324    1.9711484   -18.798644   -16.827496          512    3.5139783    3.7684025    3.4653839    3.3081486            8            8            8   -13.229182 
   63000    1.3674333    2.0470477   -18.628973   -16.581925          512    4.4871904    4.0695364    4.3748451    5.0171898            8            8            8   -11.987042 
   64000    1.4208486    2.1270103   -18.580789   -16.453779          512    4.5452526    3.8462147    4.1640461    5.6254969            8            8            8    -11.79944 
   65000    1.4810247    2.2170939   -18.522666   -16.305572          512    4.6291577    4.3349074    5.1200385    4.4325272            8            8            8   -11.565315 
   66000    1.5349424    2.2978088    -18.51201   -16.214201          512    5.0618661    6.0224046    4.2834499    4.8797439            8            8            8   -11.030851 
   67000     1.542743    2.3094862   -18.550961   -16.241475          512    4.6168856    4.4842012    5.3693984    3.9970572            8            8            8   -11.513784 
   68000    1.4439527    2.1615972   -18.516033   -16.354436          512    4.9277353    5.6522124    4.5091053     4.621888            8            8            8   -11.308435 
   69000    1.3959369    2.0897175   -18.513459   -16.423742          512    4.4696463    3.1533752    4.6779545     5.577609            8            8            8   -11.846824 
   70000    1.5142878    2.2668888    -18.57359   -16.306701          512    4.9127853      5.31289    4.6324674    4.7929984            8            8            8   -11.276009 
   71000    1.5759134    2.3591423   -18.498435   -16.139293          512    5.6067233    5.4309962    5.8369453    5.5522284            8            8            8   -10.398008 
   72000    1.5360546    2.2994738   -18.498862   -16.199388          512    5.0850991    4.6058818    5.0072588    5.6421567            8            8            8   -10.992246 
   73000    1.5416785    2.3078928   -18.647511   -16.339618          512    4.6361426    4.5003486    4.5404776    4.8676016            8            8            8   -11.592208 
   74000    1.4808347    2.2168095   -18.591129   -16.374319          512     4.144916    3.6955923    3.2889544    5.4502014            8            8            8   -12.129925 
   75000    1.4705877    2.2014698   -18.575064   -16.373594          512    4.2760991    3.6026423    3.6840719    5.5415832            8            8            8   -11.994868 
   76000    1.4514666    2.1728455   -18.559744   -16.386899          512    4.9019635     5.200979    4.9225732    4.5823383            8            8            8   -11.367288 
   77000    1.4159188    2.1196304   -18.611847   -16.492216          512     4.526349    3.5078249    4.1112697    5.9599525            8            8            8   -11.857235 
   78000    1.4156476    2.1192244    -18.77293   -16.653706          512    4.0078709    3.3032535    4.4781003    4.2422589            8            8            8   -12.549646 
   79000    1.4367306    2.1507857   -18.724245   -16.573459          512    4.3067565    3.8370004     5.259818     3.823451            8            8            8   -12.163341 
   80000    1.5399757    2.3053436   -18.711052   -16.405708          512    4.2935404    4.6743664    4.5272503    3.6790045            8            8            8   -12.009123 
   81000    1.4661299    2.1947964   -18.557479   -16.362683          512    5.0334796    4.1265096    5.4840588    5.4898703            8            8            8     -11.2084 
   82000    1.4788767    2.2138784   -18.611254   -16.397376          512     4.867164    4.3806499    5.5909439    4.6298984            8            8            8     -11.4134 
   83000    1.4794732    2.2147714   -18.734824   -16.520053          512    4.0086585    3.7409098     4.142602    4.1424636            8            8            8   -12.415187 
   84000    1.4056564    2.1042676   -18.791583   -16.687316          512    4.1776822     3.437275    4.4403193    4.6554524            8            8            8   -12.409369 
   85000    1.4698211    2.2003222    -18.82231   -16.621987          512    4.0070337    3.2371224    5.3715455    3.4124331            8            8            8   -12.518785 
   86000    1.4825917    2.2194398   -18.613119   -16.393679          512     4.437688    3.4782507    4.4666957    5.3681176            8            8            8   -11.849487 
   87000    1.5524768    2.3240577   -18.655137   -16.331079          512    4.7530135    4.6059095    4.8251472    4.8279838            8            8            8   -11.463994 
   88000    1.5381842    2.3026618   -18.673647   -16.370985          512    4.2447219    5.2401969    4.0453206    3.4486483            8            8            8    -12.02439 
   89000    1.4639461    2.1915273   -18.694369   -16.502842          512    4.1555851    4.1422387    3.5065549    4.8179616            8            8            8   -12.247523 
   90000     1.480183    2.2158339   -18.777748   -16.561914          512    3.5605226    2.3017535    3.7415278    4.6382866            8            8            8   -12.915939 
   91000     1.477821    2.2122981    -18.67366   -16.461362          512     4.289324    3.8941556    3.8275745    5.1462419            8            8            8   -12.069094 
   92000    1.5024276    2.2491341    -18.49553   -16.246396          512    5.1940232    6.3892697    4.5218793    4.6709206            8            8            8   -10.927716 
   93000    1.5830669    2.3698511   -18.625458   -16.255607          512    4.7631107    4.7659906    4.1598142    5.3635274            8            8            8   -11.378181 
   94000    1.4953475    2.2385353   -18.615218   -16.376683          512    4.9212955    4.8915731    5.0756273    4.7966862            8            8            8   -11.337276 
   95000    1.4040323    2.1018363   -18.576278   -16.474442          512    4.9667743    4.7807963     4.705581    5.4139456            8            8            8   -11.388465 
   96000    1.4773368    2.2115731    -18.63312   -16.421547          512    4.2546508    4.1618075    4.7249752    3.8771698            8            8            8   -12.064785 
   97000    1.5181801    2.2727156   -18.426638   -16.153923          512    5.4284873    4.6335131    6.1782904    5.4736582            8            8            8   -10.595152 
   98000    1.5721456     2.353502   -18.486276   -16.132774          512    5.1458899    5.2883338    4.3080284    5.8413074            8            8            8   -10.863383 
   99000    1.5266842    2.2854462   -18.560493   -16.275047          512     4.314864    4.3273453    4.6509758    3.9662709            8            8            8   -11.856626 
  100000    1.4477325    2.1672555   -18.537696   -16.370441          512    4.5182438    4.7774224    4.9689033    3.8084057            8            8            8   -11.743759 
Loop time of 207.239 on 1 procs for 100000 steps with 500 atoms

Pair  time (%) = 182.821 (88.2172)
Neigh time (%) = 18.9226 (9.13078)
Comm  time (%) = 3.34697 (1.61503)
Outpt time (%) = 0.00433254 (0.0020906)
Other time (%) = 2.14473 (1.03491)

Nlocal:    500 ave 500 max 500 min
Histogram: 1 0 0 0 0 0 0 0 0 0
Nghost:    4008 ave 4008 max 4008 min
Histogram: 1 0 0 0 0 0 0 0 0 0
Neighs:    80737 ave 80737 max 80737 min
Histogram: 1 0 0 0 0 0 0 0 0 0

Total # of neighbors = 80737
Ave neighs/atom = 161.474
Neighbor list builds = 5000
Dangerous builds = 0
